LAMMPS data file. CGCMM style. atom_style full generated by VMD/TopoTools v1.2 on Wed Dec 03 22:05:10 +0330 2025
 1560 atoms
 0 bonds
 0 angles
 0 dihedrals
 0 impropers
 3 atom types
 0 bond types
 0 angle types
 0 dihedral types
 0 improper types
 0.000000 30.000000  xlo xhi
 0.000000 30.000000  ylo yhi
 0.000000 30.000000  zlo zhi

# Pair Coeffs
#
# 1  CA
# 2  O
# 3  SI

 Masses

 1 40.077999 # CA
 2 15.999400 # O
 3 28.085501 # SI

 Atoms

1 1 3 0.000000 -0.011000 13.614000 22.070000 # SI UNL
2 2 3 0.000000 27.059000 0.020000 10.414000 # SI UNL
3 3 3 0.000000 7.073000 11.380000 28.509001 # SI UNL
4 4 3 0.000000 10.411000 30.038000 5.034000 # SI UNL
5 5 3 0.000000 6.176000 11.296000 17.948000 # SI UNL
6 6 3 0.000000 17.844999 2.352000 27.131001 # SI UNL
7 7 3 0.000000 27.823000 30.017000 -0.012000 # SI UNL
8 8 3 0.000000 5.306000 12.927000 24.879999 # SI UNL
9 9 3 0.000000 25.225000 30.035999 4.636000 # SI UNL
10 10 3 0.000000 29.427999 24.597000 14.484000 # SI UNL
11 11 3 0.000000 20.499001 3.649000 9.437000 # SI UNL
12 12 3 0.000000 3.766000 15.586000 21.844000 # SI UNL
13 13 3 0.000000 19.489000 1.876000 12.273000 # SI UNL
14 14 3 0.000000 17.103001 11.512000 23.332001 # SI UNL
15 15 3 0.000000 24.664000 3.460000 3.848000 # SI UNL
16 16 3 0.000000 15.704000 28.797001 8.953000 # SI UNL
17 17 3 0.000000 7.727000 -0.020000 26.886000 # SI UNL
18 18 3 0.000000 -0.022000 27.205000 6.386000 # SI UNL
19 19 3 0.000000 26.145000 11.205000 20.969999 # SI UNL
20 20 3 0.000000 27.465000 15.650000 7.961000 # SI UNL
21 21 3 0.000000 2.481000 4.553000 11.334000 # SI UNL
22 22 3 0.000000 25.608000 1.142000 21.343000 # SI UNL
23 23 3 0.000000 0.005000 9.021000 5.899000 # SI UNL
24 24 3 0.000000 20.253000 18.127001 14.464000 # SI UNL
25 25 3 0.000000 5.042000 12.806000 29.929001 # SI UNL
26 26 3 0.000000 17.934999 12.796000 18.525000 # SI UNL
27 27 3 0.000000 12.362000 10.306000 29.455999 # SI UNL
28 28 3 0.000000 6.217000 7.051000 8.794000 # SI UNL
29 29 3 0.000000 27.554001 25.296000 9.394000 # SI UNL
30 30 3 0.000000 0.902000 19.983999 12.355000 # SI UNL
31 31 3 0.000000 10.825000 5.494000 17.333000 # SI UNL
32 32 3 0.000000 11.157000 6.548000 25.937000 # SI UNL
33 33 3 0.000000 -0.005000 25.694000 25.917000 # SI UNL
34 34 3 0.000000 2.498000 3.741000 2.359000 # SI UNL
35 35 3 0.000000 14.662000 30.079000 1.962000 # SI UNL
36 36 3 0.000000 6.612000 11.647000 21.312000 # SI UNL
37 37 3 0.000000 14.591000 0.741000 30.006001 # SI UNL
38 38 3 0.000000 9.136000 2.236000 13.190000 # SI UNL
39 39 3 0.000000 17.544001 22.308001 1.463000 # SI UNL
40 40 3 0.000000 2.084000 20.443001 20.028000 # SI UNL
41 41 3 0.000000 2.468000 4.906000 4.971000 # SI UNL
42 42 3 0.000000 19.721001 22.277000 3.317000 # SI UNL
43 43 3 0.000000 11.753000 21.479000 29.556000 # SI UNL
44 44 3 0.000000 14.407000 17.305000 20.690001 # SI UNL
45 45 3 0.000000 9.906000 3.374000 -0.006000 # SI UNL
46 46 3 0.000000 -0.011000 26.424000 15.892000 # SI UNL
47 47 3 0.000000 21.707001 9.841000 18.368000 # SI UNL
48 48 3 0.000000 15.883000 12.188000 20.510000 # SI UNL
49 49 3 0.000000 19.930000 29.480000 5.725000 # SI UNL
50 50 3 0.000000 8.716000 4.560000 2.362000 # SI UNL
51 51 3 0.000000 12.205000 17.305000 -0.059000 # SI UNL
52 52 3 0.000000 18.173000 -0.003000 8.752000 # SI UNL
53 53 3 0.000000 7.371000 17.204000 14.581000 # SI UNL
54 54 3 0.000000 7.927000 25.271999 24.861000 # SI UNL
55 55 3 0.000000 4.179000 6.391000 23.704000 # SI UNL
56 56 3 0.000000 2.498000 25.719999 27.298000 # SI UNL
57 57 3 0.000000 25.716000 29.299000 20.847000 # SI UNL
58 58 3 0.000000 17.108000 22.978001 24.666000 # SI UNL
59 59 3 0.000000 5.208000 22.336000 16.591999 # SI UNL
60 60 3 0.000000 6.661000 5.395000 24.711000 # SI UNL
61 61 3 0.000000 9.212000 29.714001 16.212000 # SI UNL
62 62 3 0.000000 23.525999 16.372000 5.806000 # SI UNL
63 63 3 0.000000 27.386999 16.413000 26.054001 # SI UNL
64 64 3 0.000000 0.589000 0.901000 23.702999 # SI UNL
65 65 3 0.000000 9.317000 10.467000 9.666000 # SI UNL
66 66 3 0.000000 19.947001 29.976999 8.632000 # SI UNL
67 67 3 0.000000 26.926001 27.840000 8.183000 # SI UNL
68 68 3 0.000000 11.524000 16.583000 20.750000 # SI UNL
69 69 3 0.000000 6.907000 14.882000 4.803000 # SI UNL
70 70 3 0.000000 1.753000 10.635000 17.118999 # SI UNL
71 71 3 0.000000 -0.075000 8.757000 21.656000 # SI UNL
72 72 3 0.000000 2.873000 21.306000 22.636999 # SI UNL
73 73 3 0.000000 27.735001 29.431999 23.101000 # SI UNL
74 74 3 0.000000 24.099001 3.551000 22.475000 # SI UNL
75 75 3 0.000000 15.934000 2.255000 21.775000 # SI UNL
76 76 3 0.000000 6.305000 21.270000 10.888000 # SI UNL
77 77 3 0.000000 13.398000 23.399000 27.201000 # SI UNL
78 78 3 0.000000 -0.001000 14.004000 8.327000 # SI UNL
79 79 3 0.000000 6.388000 27.423000 10.561000 # SI UNL
80 80 3 0.000000 1.411000 2.927000 13.429000 # SI UNL
81 81 3 0.000000 6.080000 29.646000 26.516001 # SI UNL
82 82 3 0.000000 0.101000 15.073000 30.021999 # SI UNL
83 83 3 0.000000 22.316999 -0.001000 -0.002000 # SI UNL
84 84 3 0.000000 4.536000 28.764000 3.493000 # SI UNL
85 85 3 0.000000 23.004000 7.996000 13.532000 # SI UNL
86 86 3 0.000000 25.104000 8.342000 6.717000 # SI UNL
87 87 3 0.000000 4.117000 18.337000 8.546000 # SI UNL
88 88 3 0.000000 -0.031000 12.793000 1.676000 # SI UNL
89 89 3 0.000000 2.045000 6.945000 7.498000 # SI UNL
90 90 3 0.000000 24.450001 9.036000 18.315001 # SI UNL
91 91 3 0.000000 4.576000 27.812000 12.739000 # SI UNL
92 92 3 0.000000 2.752000 5.501000 30.013000 # SI UNL
93 93 3 0.000000 15.614000 27.731001 3.285000 # SI UNL
94 94 3 0.000000 0.011000 16.004000 20.500000 # SI UNL
95 95 3 0.000000 26.552000 1.788000 18.025999 # SI UNL
96 96 3 0.000000 17.289000 7.059000 0.612000 # SI UNL
97 97 3 0.000000 8.900000 16.789000 29.969000 # SI UNL
98 98 3 0.000000 17.576000 0.227000 23.253000 # SI UNL
99 99 3 0.000000 16.091999 6.195000 10.751000 # SI UNL
100 100 3 0.000000 13.968000 23.774000 21.431000 # SI UNL
101 101 3 0.000000 10.907000 26.599001 12.514000 # SI UNL
102 102 3 0.000000 12.926000 25.726999 23.240999 # SI UNL
103 103 3 0.000000 8.852000 24.768999 13.985000 # SI UNL
104 104 3 0.000000 4.350000 15.440000 -0.009000 # SI UNL
105 105 3 0.000000 27.747999 25.631001 6.560000 # SI UNL
106 106 3 0.000000 1.729000 11.292000 -0.005000 # SI UNL
107 107 3 0.000000 10.058000 5.229000 7.241000 # SI UNL
108 108 3 0.000000 13.246000 11.004000 4.801000 # SI UNL
109 109 3 0.000000 2.965000 5.084000 16.834000 # SI UNL
110 110 3 0.000000 11.441000 20.020000 11.412000 # SI UNL
111 111 3 0.000000 1.436000 22.775999 12.042000 # SI UNL
112 112 3 0.000000 20.716000 15.238000 20.016001 # SI UNL
113 113 3 0.000000 7.410000 1.701000 20.375000 # SI UNL
114 114 3 0.000000 27.590000 21.403000 13.647000 # SI UNL
115 115 3 0.000000 16.542999 17.697001 22.549000 # SI UNL
116 116 3 0.000000 4.747000 -0.020000 27.601999 # SI UNL
117 117 3 0.000000 11.080000 6.771000 11.008000 # SI UNL
118 118 3 0.000000 29.818001 3.276000 1.557000 # SI UNL
119 119 3 0.000000 14.831000 -0.003000 14.806000 # SI UNL
120 120 3 0.000000 30.000999 0.376000 18.209999 # SI UNL
121 121 3 0.000000 20.985001 19.625999 22.139000 # SI UNL
122 122 3 0.000000 14.279000 20.221001 30.016001 # SI UNL
123 123 3 0.000000 6.156000 17.625999 5.093000 # SI UNL
124 124 3 0.000000 13.731000 7.809000 10.734000 # SI UNL
125 125 3 0.000000 4.483000 19.198000 20.962999 # SI UNL
126 126 3 0.000000 10.468000 11.713000 27.542999 # SI UNL
127 127 3 0.000000 4.337000 26.615000 25.106001 # SI UNL
128 128 3 0.000000 -0.006000 30.007000 30.002001 # SI UNL
129 129 3 0.000000 -0.018000 21.235001 22.573999 # SI UNL
130 130 3 0.000000 10.690000 20.120001 6.861000 # SI UNL
131 131 3 0.000000 9.061000 9.902000 14.889000 # SI UNL
132 132 3 0.000000 26.829000 6.354000 22.636999 # SI UNL
133 133 3 0.000000 28.087000 19.698000 25.642000 # SI UNL
134 134 3 0.000000 5.159000 9.570000 19.987000 # SI UNL
135 135 3 0.000000 4.662000 -0.009000 8.392000 # SI UNL
136 136 3 0.000000 20.142000 22.343000 29.992001 # SI UNL
137 137 3 0.000000 23.521999 -0.034000 14.894000 # SI UNL
138 138 3 0.000000 14.976000 22.159000 3.745000 # SI UNL
139 139 3 0.000000 28.921000 23.344000 7.813000 # SI UNL
140 140 3 0.000000 -0.047000 12.540000 13.010000 # SI UNL
141 141 3 0.000000 30.018999 4.815000 17.204000 # SI UNL
142 142 3 0.000000 21.695000 24.177000 23.507000 # SI UNL
143 143 3 0.000000 10.529000 24.660999 17.173000 # SI UNL
144 144 3 0.000000 5.486000 2.376000 13.644000 # SI UNL
145 145 3 0.000000 9.578000 27.534000 20.041000 # SI UNL
146 146 3 0.000000 16.473000 24.690001 22.464001 # SI UNL
147 147 3 0.000000 22.288000 26.974001 23.558001 # SI UNL
148 148 3 0.000000 27.593000 14.833000 2.097000 # SI UNL
149 149 3 0.000000 -0.008000 27.377001 20.646000 # SI UNL
150 150 3 0.000000 11.229000 16.445999 2.488000 # SI UNL
151 151 3 0.000000 19.478001 4.510000 25.302999 # SI UNL
152 152 3 0.000000 3.785000 9.571000 12.892000 # SI UNL
153 153 3 0.000000 17.806999 12.602000 30.006001 # SI UNL
154 154 3 0.000000 22.730000 1.799000 11.870000 # SI UNL
155 155 3 0.000000 21.702000 2.769000 3.504000 # SI UNL
156 156 3 0.000000 7.107000 1.093000 -0.001000 # SI UNL
157 157 3 0.000000 6.591000 17.073999 7.865000 # SI UNL
158 158 3 0.000000 8.857000 15.289000 24.964001 # SI UNL
159 159 3 0.000000 17.434999 29.725000 13.581000 # SI UNL
160 160 3 0.000000 18.476000 10.010000 5.347000 # SI UNL
161 161 3 0.000000 13.986000 9.824000 19.070000 # SI UNL
162 162 3 0.000000 24.879000 27.510000 16.143000 # SI UNL
163 163 3 0.000000 30.004000 6.755000 22.274000 # SI UNL
164 164 3 0.000000 28.059000 19.129000 21.507999 # SI UNL
165 165 3 0.000000 30.021000 6.111000 2.059000 # SI UNL
166 166 3 0.000000 17.405001 13.622000 27.365000 # SI UNL
167 167 3 0.000000 11.700000 14.212000 6.379000 # SI UNL
168 168 3 0.000000 -0.050000 27.216000 2.691000 # SI UNL
169 169 3 0.000000 15.761000 12.818000 0.055000 # SI UNL
170 170 3 0.000000 15.419000 15.260000 14.170000 # SI UNL
171 171 3 0.000000 10.507000 22.934000 6.390000 # SI UNL
172 172 3 0.000000 23.643000 22.010000 6.812000 # SI UNL
173 173 3 0.000000 13.583000 15.215000 1.323000 # SI UNL
174 174 3 0.000000 18.770000 30.007999 25.171000 # SI UNL
175 175 3 0.000000 25.226999 12.596000 29.268999 # SI UNL
176 176 3 0.000000 0.047000 7.833000 14.432000 # SI UNL
177 177 3 0.000000 16.108999 1.287000 10.254000 # SI UNL
178 178 3 0.000000 27.976999 12.409000 30.033001 # SI UNL
179 179 3 0.000000 19.462999 15.662000 26.326000 # SI UNL
180 180 3 0.000000 22.507999 8.208000 20.576000 # SI UNL
181 181 3 0.000000 12.770000 24.287001 5.282000 # SI UNL
182 182 3 0.000000 23.167000 10.757000 30.009001 # SI UNL
183 183 3 0.000000 29.415001 1.585000 10.841000 # SI UNL
184 184 3 0.000000 14.028000 12.369000 15.495000 # SI UNL
185 185 3 0.000000 10.795000 2.677000 20.740999 # SI UNL
186 186 3 0.000000 15.445000 13.152000 11.528000 # SI UNL
187 187 3 0.000000 2.802000 4.550000 27.316999 # SI UNL
188 188 3 0.000000 6.212000 8.772000 16.605000 # SI UNL
189 189 3 0.000000 16.504999 15.644000 25.554001 # SI UNL
190 190 3 0.000000 30.023001 25.507999 30.007999 # SI UNL
191 191 3 0.000000 27.931000 -0.002000 16.273001 # SI UNL
192 192 3 0.000000 30.052000 24.465000 10.509000 # SI UNL
193 193 3 0.000000 26.424000 1.127000 30.000999 # SI UNL
194 194 3 0.000000 13.927000 19.101999 18.518999 # SI UNL
195 195 3 0.000000 18.084000 15.815000 15.261000 # SI UNL
196 196 3 0.000000 19.319000 -0.034000 14.395000 # SI UNL
197 197 3 0.000000 18.867001 5.513000 10.865000 # SI UNL
198 198 3 0.000000 21.000000 15.064000 0.049000 # SI UNL
199 199 3 0.000000 11.171000 13.606000 19.216000 # SI UNL
200 200 3 0.000000 13.393000 12.154000 7.415000 # SI UNL
201 201 3 0.000000 14.850000 1.857000 24.868999 # SI UNL
202 202 3 0.000000 6.239000 21.694000 5.859000 # SI UNL
203 203 3 0.000000 16.677000 5.664000 4.691000 # SI UNL
204 204 3 0.000000 12.331000 19.323000 20.881001 # SI UNL
205 205 3 0.000000 13.791000 -0.008000 27.365000 # SI UNL
206 206 3 0.000000 6.096000 21.287001 25.971001 # SI UNL
207 207 3 0.000000 20.281000 20.237000 17.861000 # SI UNL
208 208 3 0.000000 10.366000 23.212999 19.634001 # SI UNL
209 209 3 0.000000 9.920000 1.969000 2.485000 # SI UNL
210 210 3 0.000000 28.910999 17.660999 -0.000000 # SI UNL
211 211 3 0.000000 27.778000 9.725000 12.478000 # SI UNL
212 212 3 0.000000 1.748000 20.030001 4.765000 # SI UNL
213 213 3 0.000000 14.217000 9.473000 25.051001 # SI UNL
214 214 3 0.000000 5.557000 23.628000 9.455000 # SI UNL
215 215 3 0.000000 19.791000 6.361000 1.941000 # SI UNL
216 216 3 0.000000 12.004000 9.565000 9.281000 # SI UNL
217 217 3 0.000000 18.344999 10.422000 14.448000 # SI UNL
218 218 3 0.000000 6.519000 4.172000 19.245001 # SI UNL
219 219 3 0.000000 2.153000 30.018000 23.687000 # SI UNL
220 220 3 0.000000 27.028000 5.076000 13.789000 # SI UNL
221 221 3 0.000000 27.309000 2.456000 3.163000 # SI UNL
222 222 3 0.000000 30.000999 1.622000 14.528000 # SI UNL
223 223 3 0.000000 20.476999 6.884000 12.789000 # SI UNL
224 224 3 0.000000 18.233999 27.886000 20.417000 # SI UNL
225 225 3 0.000000 9.229000 13.814000 16.874001 # SI UNL
226 226 3 0.000000 10.348000 26.624001 24.093000 # SI UNL
227 227 3 0.000000 15.988000 16.996000 11.973000 # SI UNL
228 228 3 0.000000 24.740000 9.833000 27.415001 # SI UNL
229 229 3 0.000000 18.601000 7.919000 17.864000 # SI UNL
230 230 3 0.000000 15.194000 4.015000 13.840000 # SI UNL
231 231 3 0.000000 4.999000 29.666000 9.457000 # SI UNL
232 232 3 0.000000 3.794000 7.270000 20.999001 # SI UNL
233 233 3 0.000000 20.804001 20.856001 24.714001 # SI UNL
234 234 3 0.000000 29.723000 11.536000 3.369000 # SI UNL
235 235 3 0.000000 18.830000 26.593000 15.448000 # SI UNL
236 236 3 0.000000 13.261000 -0.017000 18.051001 # SI UNL
237 237 3 0.000000 1.479000 27.180000 18.212000 # SI UNL
238 238 3 0.000000 11.734000 2.329000 17.464001 # SI UNL
239 239 3 0.000000 30.007000 22.521000 12.605000 # SI UNL
240 240 3 0.000000 8.979000 21.190001 22.445999 # SI UNL
241 241 3 0.000000 30.017000 19.698000 13.063000 # SI UNL
242 242 3 0.000000 6.261000 30.004999 5.556000 # SI UNL
243 243 3 0.000000 18.936001 3.055000 6.777000 # SI UNL
244 244 3 0.000000 19.687000 6.389000 30.007999 # SI UNL
245 245 3 0.000000 19.899000 9.708000 25.416000 # SI UNL
246 246 3 0.000000 29.849001 21.900999 15.401000 # SI UNL
247 247 3 0.000000 24.107000 -0.012000 10.137000 # SI UNL
248 248 3 0.000000 5.280000 4.393000 2.491000 # SI UNL
249 249 3 0.000000 14.069000 6.169000 25.756001 # SI UNL
250 250 3 0.000000 5.135000 9.645000 4.612000 # SI UNL
251 251 3 0.000000 6.610000 18.350000 29.261999 # SI UNL
252 252 3 0.000000 28.382999 4.246000 11.021000 # SI UNL
253 253 3 0.000000 22.805000 7.064000 16.910999 # SI UNL
254 254 3 0.000000 27.549999 28.521999 16.013000 # SI UNL
255 255 3 0.000000 25.238001 3.867000 7.256000 # SI UNL
256 256 3 0.000000 4.580000 27.927999 -0.002000 # SI UNL
257 257 3 0.000000 27.330999 18.917000 18.750999 # SI UNL
258 258 3 0.000000 12.792000 7.069000 28.224001 # SI UNL
259 259 3 0.000000 22.002001 15.372000 27.608000 # SI UNL
260 260 3 0.000000 22.707001 18.266001 27.975000 # SI UNL
261 261 3 0.000000 10.717000 12.566000 22.299000 # SI UNL
262 262 3 0.000000 18.559999 15.792000 6.916000 # SI UNL
263 263 3 0.000000 20.683001 2.002000 27.114000 # SI UNL
264 264 3 0.000000 6.738000 30.002001 30.004999 # SI UNL
265 265 3 0.000000 9.070000 22.320000 30.077999 # SI UNL
266 266 3 0.000000 20.830999 13.509000 17.740999 # SI UNL
267 267 3 0.000000 -0.015000 9.225000 11.312000 # SI UNL
268 268 3 0.000000 28.253000 21.975000 27.364000 # SI UNL
269 269 3 0.000000 3.257000 5.596000 14.037000 # SI UNL
270 270 3 0.000000 27.245001 17.725000 29.995001 # SI UNL
271 271 3 0.000000 6.585000 27.351000 20.045000 # SI UNL
272 272 3 0.000000 20.143999 24.249001 19.004999 # SI UNL
273 273 3 0.000000 16.165001 13.957000 16.605000 # SI UNL
274 274 3 0.000000 10.450000 20.039000 26.166000 # SI UNL
275 275 3 0.000000 2.843000 30.021000 13.279000 # SI UNL
276 276 3 0.000000 14.863000 4.733000 20.832001 # SI UNL
277 277 3 0.000000 1.833000 29.743000 20.858000 # SI UNL
278 278 3 0.000000 5.856000 21.007999 30.000999 # SI UNL
279 279 3 0.000000 23.311001 19.947001 25.742001 # SI UNL
280 280 3 0.000000 21.127001 11.575000 15.240000 # SI UNL
281 281 3 0.000000 0.472000 22.636000 -0.001000 # SI UNL
282 282 3 0.000000 17.844999 13.349000 9.959000 # SI UNL
283 283 3 0.000000 26.691000 9.793000 25.325001 # SI UNL
284 284 3 0.000000 17.761000 17.920000 26.746000 # SI UNL
285 285 3 0.000000 22.834999 24.613001 -0.037000 # SI UNL
286 286 3 0.000000 26.434000 15.765000 17.052999 # SI UNL
287 287 3 0.000000 16.098000 3.171000 30.002001 # SI UNL
288 288 3 0.000000 20.634001 6.437000 8.816000 # SI UNL
289 289 3 0.000000 -0.028000 11.905000 25.507999 # SI UNL
290 290 3 0.000000 26.485001 27.917999 1.396000 # SI UNL
291 291 3 0.000000 8.594000 30.011999 27.829000 # SI UNL
292 292 3 0.000000 14.711000 5.647000 8.307000 # SI UNL
293 293 3 0.000000 25.513000 16.646999 14.494000 # SI UNL
294 294 3 0.000000 15.583000 10.592000 6.445000 # SI UNL
295 295 3 0.000000 24.818001 11.811000 8.413000 # SI UNL
296 296 3 0.000000 3.921000 21.737000 -0.060000 # SI UNL
297 297 3 0.000000 24.427000 15.044000 12.390000 # SI UNL
298 298 3 0.000000 17.987000 22.974001 8.128000 # SI UNL
299 299 3 0.000000 21.542000 21.032000 5.136000 # SI UNL
300 300 3 0.000000 12.734000 30.020000 6.903000 # SI UNL
301 301 3 0.000000 19.853001 15.295000 10.557000 # SI UNL
302 302 3 0.000000 -0.002000 29.837999 26.568001 # SI UNL
303 303 3 0.000000 20.829000 18.808001 6.787000 # SI UNL
304 304 3 0.000000 13.248000 16.403999 11.404000 # SI UNL
305 305 3 0.000000 23.260000 4.818000 1.759000 # SI UNL
306 306 3 0.000000 23.473000 18.775000 0.601000 # SI UNL
307 307 3 0.000000 21.618000 10.435000 27.584000 # SI UNL
308 308 3 0.000000 23.403000 2.967000 26.980000 # SI UNL
309 309 3 0.000000 21.142000 24.861000 29.079000 # SI UNL
310 310 3 0.000000 17.718000 5.498000 22.902000 # SI UNL
311 311 3 0.000000 30.020000 17.980000 18.493000 # SI UNL
312 312 3 0.000000 28.914000 21.688999 22.452999 # SI UNL
313 313 3 0.000000 11.181000 28.879999 14.314000 # SI UNL
314 314 3 0.000000 23.212000 5.889000 27.149000 # SI UNL
315 315 3 0.000000 13.468000 2.157000 8.379000 # SI UNL
316 316 3 0.000000 28.120001 29.983999 2.832000 # SI UNL
317 317 3 0.000000 6.629000 3.955000 8.200000 # SI UNL
318 318 3 0.000000 23.737000 22.580999 24.714001 # SI UNL
319 319 3 0.000000 13.598000 18.895000 6.220000 # SI UNL
320 320 3 0.000000 30.010000 7.233000 4.690000 # SI UNL
321 321 3 0.000000 26.121000 -0.001000 2.311000 # SI UNL
322 322 3 0.000000 5.187000 11.721000 8.103000 # SI UNL
323 323 3 0.000000 4.714000 18.768000 12.690000 # SI UNL
324 324 3 0.000000 20.049999 2.175000 23.412001 # SI UNL
325 325 3 0.000000 12.646000 27.344999 25.636000 # SI UNL
326 326 3 0.000000 22.173000 0.973000 24.902000 # SI UNL
327 327 3 0.000000 23.291000 5.994000 11.510000 # SI UNL
328 328 3 0.000000 16.149000 24.863001 15.784000 # SI UNL
329 329 3 0.000000 30.021999 19.083000 15.855000 # SI UNL
330 330 3 0.000000 23.587999 2.143000 16.747000 # SI UNL
331 331 3 0.000000 0.472000 11.773000 19.934999 # SI UNL
332 332 3 0.000000 12.652000 30.080999 21.313000 # SI UNL
333 333 3 0.000000 24.011000 21.518000 12.630000 # SI UNL
334 334 3 0.000000 9.197000 10.222000 25.459999 # SI UNL
335 335 3 0.000000 13.201000 16.605000 4.553000 # SI UNL
336 336 3 0.000000 20.679001 27.356001 13.404000 # SI UNL
337 337 3 0.000000 16.218000 9.158000 10.319000 # SI UNL
338 338 3 0.000000 6.493000 13.530000 9.893000 # SI UNL
339 339 3 0.000000 18.556000 19.916000 29.749001 # SI UNL
340 340 3 0.000000 27.858999 27.201000 29.216000 # SI UNL
341 341 3 0.000000 -0.034000 9.219000 24.528999 # SI UNL
342 342 3 0.000000 3.016000 26.438000 30.017000 # SI UNL
343 343 3 0.000000 11.012000 15.544000 8.814000 # SI UNL
344 344 3 0.000000 3.186000 16.958000 14.293000 # SI UNL
345 345 3 0.000000 28.233999 9.827000 15.763000 # SI UNL
346 346 3 0.000000 20.299000 29.306999 -0.002000 # SI UNL
347 347 3 0.000000 28.107000 7.330000 25.003000 # SI UNL
348 348 3 0.000000 30.004000 26.771999 12.720000 # SI UNL
349 349 3 0.000000 14.800000 3.514000 4.857000 # SI UNL
350 350 3 0.000000 3.943000 9.879000 9.902000 # SI UNL
351 351 3 0.000000 19.205999 4.347000 -0.004000 # SI UNL
352 352 3 0.000000 11.820000 11.441000 17.448000 # SI UNL
353 353 3 0.000000 10.675000 19.730000 15.353000 # SI UNL
354 354 3 0.000000 26.966000 24.740000 2.290000 # SI UNL
355 355 3 0.000000 8.479000 3.725000 22.089001 # SI UNL
356 356 3 0.000000 14.229000 7.610000 -0.005000 # SI UNL
357 357 3 0.000000 30.004000 14.328000 14.489000 # SI UNL
358 358 3 0.000000 25.691000 21.708000 30.004999 # SI UNL
359 359 3 0.000000 12.967000 17.559000 25.829000 # SI UNL
360 360 3 0.000000 6.700000 26.704000 27.011000 # SI UNL
361 1 1 0.000000 29.938999 21.209999 -0.003000 # CA UNL
362 2 1 0.000000 8.142000 26.490000 22.283001 # CA UNL
363 3 1 0.000000 27.223000 22.243000 10.272000 # CA UNL
364 4 1 0.000000 -0.008000 4.778000 29.829000 # CA UNL
365 5 1 0.000000 25.063000 21.520000 15.289000 # CA UNL
366 6 1 0.000000 1.467000 25.507999 9.956000 # CA UNL
367 7 1 0.000000 28.608000 27.032000 3.095000 # CA UNL
368 8 1 0.000000 30.003000 15.581000 6.396000 # CA UNL
369 9 1 0.000000 14.046000 23.252001 30.002001 # CA UNL
370 10 1 0.000000 24.284000 25.037001 26.843000 # CA UNL
371 11 1 0.000000 4.664000 7.418000 11.165000 # CA UNL
372 12 1 0.000000 13.674000 2.464000 19.559999 # CA UNL
373 13 1 0.000000 12.112000 18.487000 8.728000 # CA UNL
374 14 1 0.000000 4.229000 2.238000 25.927000 # CA UNL
375 15 1 0.000000 25.726999 9.872000 0.012000 # CA UNL
376 16 1 0.000000 8.617000 30.007999 24.969999 # CA UNL
377 17 1 0.000000 7.369000 27.267000 0.101000 # CA UNL
378 18 1 0.000000 2.283000 20.775999 30.004000 # CA UNL
379 19 1 0.000000 20.834000 24.191000 5.126000 # CA UNL
380 20 1 0.000000 1.883000 17.492001 28.396999 # CA UNL
381 21 1 0.000000 17.379999 9.849000 -0.011000 # CA UNL
382 22 1 0.000000 22.396999 14.063000 14.645000 # CA UNL
383 23 1 0.000000 12.565000 15.314000 13.990000 # CA UNL
384 24 1 0.000000 26.989000 3.546000 22.117001 # CA UNL
385 25 1 0.000000 12.656000 21.430000 5.249000 # CA UNL
386 26 1 0.000000 15.638000 9.652000 3.745000 # CA UNL
387 27 1 0.000000 10.705000 19.106001 1.579000 # CA UNL
388 28 1 0.000000 11.176000 24.981001 26.282000 # CA UNL
389 29 1 0.000000 13.384000 6.732000 17.648001 # CA UNL
390 30 1 0.000000 5.541000 20.500000 23.278999 # CA UNL
391 31 1 0.000000 23.827999 17.825001 8.529000 # CA UNL
392 32 1 0.000000 8.065000 20.973000 16.531000 # CA UNL
393 33 1 0.000000 2.353000 1.714000 11.016000 # CA UNL
394 34 1 0.000000 5.864000 20.152000 1.314000 # CA UNL
395 35 1 0.000000 19.823000 17.408001 28.736000 # CA UNL
396 36 1 0.000000 8.371000 18.646000 18.170000 # CA UNL
397 37 1 0.000000 1.984000 11.264000 11.455000 # CA UNL
398 38 1 0.000000 22.739000 4.915000 20.363001 # CA UNL
399 39 1 0.000000 23.108999 9.517000 8.394000 # CA UNL
400 40 1 0.000000 1.927000 28.163000 4.528000 # CA UNL
401 41 1 0.000000 25.968000 13.569000 18.841000 # CA UNL
402 42 1 0.000000 28.042999 30.013000 13.623000 # CA UNL
403 43 1 0.000000 12.051000 14.146000 16.549000 # CA UNL
404 44 1 0.000000 11.986000 12.358000 9.896000 # CA UNL
405 45 1 0.000000 30.000999 3.016000 4.399000 # CA UNL
406 46 1 0.000000 16.927999 29.999001 18.948999 # CA UNL
407 47 1 0.000000 23.112000 25.603001 4.129000 # CA UNL
408 48 1 0.000000 29.893999 1.705000 30.007000 # CA UNL
409 49 1 0.000000 3.699000 24.136000 14.496000 # CA UNL
410 50 1 0.000000 0.724000 12.919000 15.738000 # CA UNL
411 51 1 0.000000 20.716000 6.342000 21.794001 # CA UNL
412 52 1 0.000000 22.934000 9.256000 -0.002000 # CA UNL
413 53 1 0.000000 8.761000 22.538000 24.958000 # CA UNL
414 54 1 0.000000 11.197000 1.603000 10.167000 # CA UNL
415 55 1 0.000000 29.430000 10.394000 8.458000 # CA UNL
416 56 1 0.000000 10.507000 10.919000 19.934000 # CA UNL
417 57 1 0.000000 -0.012000 15.694000 27.233000 # CA UNL
418 58 1 0.000000 12.364000 3.126000 3.411000 # CA UNL
419 59 1 0.000000 9.294000 25.514999 6.196000 # CA UNL
420 60 1 0.000000 30.009001 18.851999 9.435000 # CA UNL
421 61 1 0.000000 12.241000 9.666000 -0.003000 # CA UNL
422 62 1 0.000000 23.125000 2.478000 9.120000 # CA UNL
423 63 1 0.000000 26.695999 21.914000 2.642000 # CA UNL
424 64 1 0.000000 14.173000 19.204000 12.053000 # CA UNL
425 65 1 0.000000 21.447001 1.875000 14.424000 # CA UNL
426 66 1 0.000000 22.736000 16.851000 13.841000 # CA UNL
427 67 1 0.000000 0.030000 24.399000 2.207000 # CA UNL
428 68 1 0.000000 11.149000 10.456000 11.861000 # CA UNL
429 69 1 0.000000 20.913000 22.521000 7.494000 # CA UNL
430 70 1 0.000000 10.878000 7.862000 15.731000 # CA UNL
431 71 1 0.000000 26.712000 12.361000 12.791000 # CA UNL
432 72 1 0.000000 28.346001 5.134000 -0.042000 # CA UNL
433 73 1 0.000000 17.365000 10.090000 19.254999 # CA UNL
434 74 1 0.000000 19.412001 22.566999 22.899000 # CA UNL
435 75 1 0.000000 25.322001 24.719000 20.079000 # CA UNL
436 76 1 0.000000 30.007000 16.846001 21.118000 # CA UNL
437 77 1 0.000000 4.078000 23.573999 7.008000 # CA UNL
438 78 1 0.000000 12.204000 1.902000 25.947001 # CA UNL
439 79 1 0.000000 6.359000 10.151000 13.993000 # CA UNL
440 80 1 0.000000 4.581000 6.136000 6.453000 # CA UNL
441 81 1 0.000000 16.073000 30.004000 24.221001 # CA UNL
442 82 1 0.000000 14.779000 0.501000 0.521000 # CA UNL
443 83 1 0.000000 22.277000 28.434000 8.025000 # CA UNL
444 84 1 0.000000 9.251000 26.509001 10.184000 # CA UNL
445 85 1 0.000000 30.000999 17.584999 25.858999 # CA UNL
446 86 1 0.000000 9.432000 4.698000 24.603001 # CA UNL
447 87 1 0.000000 24.635000 9.883000 23.316000 # CA UNL
448 88 1 0.000000 18.115999 8.114000 27.705000 # CA UNL
449 89 1 0.000000 8.001000 10.678000 5.153000 # CA UNL
450 90 1 0.000000 25.354000 24.434000 17.233999 # CA UNL
451 91 1 0.000000 30.004000 24.788000 2.003000 # CA UNL
452 92 1 0.000000 22.712000 0.339000 21.657000 # CA UNL
453 93 1 0.000000 23.209000 -0.021000 7.422000 # CA UNL
454 94 1 0.000000 -0.014000 16.924999 23.216999 # CA UNL
455 95 1 0.000000 28.246000 20.110001 4.229000 # CA UNL
456 96 1 0.000000 4.108000 23.733000 1.978000 # CA UNL
457 97 1 0.000000 29.856001 -0.001000 8.503000 # CA UNL
458 98 1 0.000000 7.886000 2.636000 25.841000 # CA UNL
459 99 1 0.000000 2.811000 3.911000 24.091999 # CA UNL
460 100 1 0.000000 28.599001 6.848000 12.186000 # CA UNL
461 101 1 0.000000 20.577999 9.104000 29.892000 # CA UNL
462 102 1 0.000000 14.005000 14.302000 9.341000 # CA UNL
463 103 1 0.000000 26.846001 6.223000 7.523000 # CA UNL
464 104 1 0.000000 6.862000 19.982000 14.135000 # CA UNL
465 105 1 0.000000 5.316000 6.358000 17.848000 # CA UNL
466 106 1 0.000000 19.591000 3.450000 15.924000 # CA UNL
467 107 1 0.000000 30.002001 14.458000 11.632000 # CA UNL
468 108 1 0.000000 2.677000 14.909000 2.562000 # CA UNL
469 109 1 0.000000 15.279000 23.591999 9.238000 # CA UNL
470 110 1 0.000000 8.221000 23.759001 21.445000 # CA UNL
471 111 1 0.000000 -0.006000 4.118000 26.997000 # CA UNL
472 112 1 0.000000 24.570000 30.033001 7.419000 # CA UNL
473 113 1 0.000000 18.155001 20.624001 25.906000 # CA UNL
474 114 1 0.000000 18.430000 27.604000 2.810000 # CA UNL
475 115 1 0.000000 24.094000 30.004999 27.379999 # CA UNL
476 116 1 0.000000 -0.009000 20.068001 27.413000 # CA UNL
477 117 1 0.000000 13.826000 14.705000 26.813999 # CA UNL
478 118 1 0.000000 10.163000 22.577000 27.448999 # CA UNL
479 119 1 0.000000 7.877000 23.827000 16.503000 # CA UNL
480 120 1 0.000000 15.265000 -0.003000 7.846000 # CA UNL
481 121 1 0.000000 5.404000 2.236000 17.459999 # CA UNL
482 122 1 0.000000 23.030001 23.294001 9.292000 # CA UNL
483 123 1 0.000000 27.541000 5.573000 18.410999 # CA UNL
484 124 1 0.000000 21.319000 6.575000 24.580000 # CA UNL
485 125 1 0.000000 17.507000 30.059999 7.129000 # CA UNL
486 126 1 0.000000 14.431000 8.531000 8.057000 # CA UNL
487 127 1 0.000000 8.229000 9.936000 2.381000 # CA UNL
488 128 1 0.000000 27.377001 14.271000 27.948000 # CA UNL
489 129 1 0.000000 9.153000 -0.001000 30.002001 # CA UNL
490 130 1 0.000000 2.352000 10.747000 5.298000 # CA UNL
491 131 1 0.000000 5.477000 14.354000 2.384000 # CA UNL
492 132 1 0.000000 24.476000 -0.001000 18.853001 # CA UNL
493 133 1 0.000000 14.417000 14.024000 5.509000 # CA UNL
494 134 1 0.000000 12.436000 4.322000 27.454000 # CA UNL
495 135 1 0.000000 15.459000 18.997999 25.434999 # CA UNL
496 136 1 0.000000 7.293000 2.222000 28.607000 # CA UNL
497 137 1 0.000000 22.969999 29.434999 14.574000 # CA UNL
498 138 1 0.000000 30.007999 8.956000 10.863000 # CA UNL
499 139 1 0.000000 19.825001 27.469000 10.678000 # CA UNL
500 140 1 0.000000 20.687000 10.163000 3.480000 # CA UNL
501 141 1 0.000000 13.734000 18.450001 23.222000 # CA UNL
502 142 1 0.000000 -0.006000 16.965000 11.247000 # CA UNL
503 143 1 0.000000 8.896000 17.712000 4.277000 # CA UNL
504 144 1 0.000000 30.000000 6.236000 9.753000 # CA UNL
505 145 1 0.000000 26.864000 7.807000 27.563000 # CA UNL
506 146 1 0.000000 25.187000 15.593000 9.690000 # CA UNL
507 147 1 0.000000 19.874001 -0.002000 21.566000 # CA UNL
508 148 1 0.000000 25.299999 13.514000 3.183000 # CA UNL
509 149 1 0.000000 18.875999 29.999001 29.972000 # CA UNL
510 150 1 0.000000 13.165000 7.167000 23.233000 # CA UNL
511 151 1 0.000000 30.033001 11.722000 16.924000 # CA UNL
512 152 1 0.000000 14.607000 17.968000 14.594000 # CA UNL
513 153 1 0.000000 16.629999 20.650999 9.095000 # CA UNL