LAMMPS data file. CGCMM style. atom_style full generated by VMD/TopoTools v1.2 on Sat May 03 10:29:16 +0330 2025
 1860 atoms
 0 bonds
 0 angles
 0 dihedrals
 0 impropers
 4 atom types
 0 bond types
 0 angle types
 0 dihedral types
 0 improper types
 0.000000 30.000000  xlo xhi
 0.000000 30.000000  ylo yhi
 0.000000 30.000000  zlo zhi

# Pair Coeffs
#
# 1  CA
# 2  O
# 3  P
# 4  SI

 Masses

 1 40.077999 # CA
 2 15.999400 # O
 3 30.973761 # P
 4 28.085501 # SI

 Atoms

1 1 4 0.000000 8.846000 18.202000 13.240000 # SI UNL
2 2 4 0.000000 25.184000 17.743999 16.021999 # SI UNL
3 3 4 0.000000 22.701000 4.445000 27.419001 # SI UNL
4 4 4 0.000000 21.017000 29.252001 8.623000 # SI UNL
5 5 4 0.000000 15.327000 13.413000 29.224001 # SI UNL
6 6 4 0.000000 20.830000 23.039000 30.000000 # SI UNL
7 7 4 0.000000 10.601000 29.997000 21.285999 # SI UNL
8 8 4 0.000000 27.573999 19.226999 24.898001 # SI UNL
9 9 4 0.000000 21.785999 13.085000 17.941999 # SI UNL
10 10 4 0.000000 18.399000 19.917999 7.972000 # SI UNL
11 11 4 0.000000 28.392000 13.416000 15.216000 # SI UNL
12 12 4 0.000000 6.205000 22.069000 21.495001 # SI UNL
13 13 4 0.000000 26.927999 2.600000 0.001000 # SI UNL
14 14 4 0.000000 -0.000000 2.605000 23.987000 # SI UNL
15 15 4 0.000000 0.000000 22.798000 8.535000 # SI UNL
16 16 4 0.000000 14.377000 26.540001 21.044001 # SI UNL
17 17 4 0.000000 24.773001 25.528999 29.459000 # SI UNL
18 18 4 0.000000 27.340000 23.811001 15.818000 # SI UNL
19 19 4 0.000000 25.542999 1.302000 11.835000 # SI UNL
20 20 4 0.000000 29.999001 6.527000 9.842000 # SI UNL
21 21 4 0.000000 16.864000 23.511999 12.890000 # SI UNL
22 22 4 0.000000 19.299999 10.263000 19.982000 # SI UNL
23 23 4 0.000000 23.990999 9.999000 28.521000 # SI UNL
24 24 4 0.000000 30.000000 8.996000 21.889000 # SI UNL
25 25 4 0.000000 14.962000 22.430000 5.892000 # SI UNL
26 26 4 0.000000 5.889000 14.569000 29.372999 # SI UNL
27 27 4 0.000000 10.464000 17.606001 24.240999 # SI UNL
28 28 4 0.000000 5.194000 2.752000 20.031000 # SI UNL
29 29 4 0.000000 1.653000 7.660000 16.771000 # SI UNL
30 30 4 0.000000 10.534000 2.766000 18.844999 # SI UNL
31 31 4 0.000000 27.447001 19.488001 29.622999 # SI UNL
32 32 4 0.000000 11.157000 13.994000 16.622999 # SI UNL
33 33 4 0.000000 9.190000 29.988001 13.666000 # SI UNL
34 34 4 0.000000 18.855000 27.715000 10.805000 # SI UNL
35 35 4 0.000000 17.711000 16.548000 4.797000 # SI UNL
36 36 4 0.000000 27.863001 11.140000 25.326000 # SI UNL
37 37 4 0.000000 3.881000 15.770000 19.702999 # SI UNL
38 38 4 0.000000 27.989000 6.946000 3.696000 # SI UNL
39 39 4 0.000000 27.862000 13.218000 9.670000 # SI UNL
40 40 4 0.000000 25.415001 6.195000 -0.000000 # SI UNL
41 41 4 0.000000 25.363001 13.633000 3.627000 # SI UNL
42 42 4 0.000000 13.232000 7.836000 8.043000 # SI UNL
43 43 4 0.000000 22.867001 1.523000 24.167000 # SI UNL
44 44 4 0.000000 12.745000 20.945000 20.105000 # SI UNL
45 45 4 0.000000 7.885000 23.327999 27.635000 # SI UNL
46 46 4 0.000000 23.157000 1.073000 3.454000 # SI UNL
47 47 4 0.000000 22.660000 30.000000 4.959000 # SI UNL
48 48 4 0.000000 19.473000 27.458000 7.547000 # SI UNL
49 49 4 0.000000 15.358000 22.049000 0.321000 # SI UNL
50 50 4 0.000000 2.448000 10.829000 12.126000 # SI UNL
51 51 4 0.000000 3.542000 28.056999 7.129000 # SI UNL
52 52 4 0.000000 15.388000 13.733000 13.837000 # SI UNL
53 53 4 0.000000 0.000000 29.999001 10.130000 # SI UNL
54 54 4 0.000000 26.084000 27.666000 5.512000 # SI UNL
55 55 4 0.000000 22.504000 29.999001 24.952000 # SI UNL
56 56 4 0.000000 9.621000 12.287000 29.999001 # SI UNL
57 57 4 0.000000 27.775999 20.514000 1.474000 # SI UNL
58 58 4 0.000000 25.621000 9.012000 16.975000 # SI UNL
59 59 4 0.000000 14.298000 11.612000 12.644000 # SI UNL
60 60 4 0.000000 0.003000 14.077000 14.832000 # SI UNL
61 61 4 0.000000 27.590000 0.650000 2.432000 # SI UNL
62 62 4 0.000000 0.000000 7.414000 22.723000 # SI UNL
63 63 4 0.000000 14.073000 30.000000 12.337000 # SI UNL
64 64 4 0.000000 5.610000 28.424999 27.525999 # SI UNL
65 65 4 0.000000 26.261999 11.644000 20.173000 # SI UNL
66 66 4 0.000000 17.930000 7.306000 25.194000 # SI UNL
67 67 4 0.000000 11.198000 -0.000000 27.327999 # SI UNL
68 68 4 0.000000 1.578000 9.709000 4.837000 # SI UNL
69 69 4 0.000000 8.147000 26.584000 3.660000 # SI UNL
70 70 4 0.000000 4.480000 0.765000 24.552999 # SI UNL
71 71 4 0.000000 -0.000000 19.195000 29.989000 # SI UNL
72 72 4 0.000000 4.489000 26.820000 29.237000 # SI UNL
73 73 4 0.000000 6.262000 13.221000 27.139000 # SI UNL
74 74 4 0.000000 13.298000 29.929001 17.816000 # SI UNL
75 75 4 0.000000 8.043000 1.486000 16.548000 # SI UNL
76 76 4 0.000000 12.264000 28.832001 23.027000 # SI UNL
77 77 4 0.000000 12.148000 19.780001 11.463000 # SI UNL
78 78 4 0.000000 14.521000 3.696000 11.166000 # SI UNL
79 79 4 0.000000 16.108999 28.111000 11.993000 # SI UNL
80 80 4 0.000000 20.708000 13.864000 30.000000 # SI UNL
81 81 4 0.000000 13.310000 28.566000 4.032000 # SI UNL
82 82 4 0.000000 23.091000 17.900999 25.250999 # SI UNL
83 83 4 0.000000 0.485000 11.890000 22.287001 # SI UNL
84 84 4 0.000000 0.000000 24.655001 13.368000 # SI UNL
85 85 4 0.000000 25.427000 29.987000 9.871000 # SI UNL
86 86 4 0.000000 11.738000 3.695000 30.000000 # SI UNL
87 87 4 0.000000 26.322001 1.864000 5.619000 # SI UNL
88 88 4 0.000000 16.337999 18.323999 12.320000 # SI UNL
89 89 4 0.000000 12.830000 6.761000 17.985001 # SI UNL
90 90 4 0.000000 9.362000 30.000000 6.552000 # SI UNL
91 91 4 0.000000 23.570999 20.242001 24.226999 # SI UNL
92 92 4 0.000000 9.246000 3.884000 25.128000 # SI UNL
93 93 4 0.000000 24.919001 20.959000 4.826000 # SI UNL
94 94 4 0.000000 28.500999 8.108000 27.552999 # SI UNL
95 95 4 0.000000 9.697000 18.643999 27.701000 # SI UNL
96 96 4 0.000000 30.000000 6.271000 23.275000 # SI UNL
97 97 4 0.000000 8.224000 16.632000 2.425000 # SI UNL
98 98 4 0.000000 21.523001 21.292000 28.202999 # SI UNL
99 99 4 0.000000 23.056000 14.233000 26.281000 # SI UNL
100 100 4 0.000000 9.905000 23.483999 13.594000 # SI UNL
101 101 4 0.000000 28.121000 9.119000 6.048000 # SI UNL
102 102 4 0.000000 0.000000 24.691000 4.300000 # SI UNL
103 103 4 0.000000 27.614000 30.000000 18.601999 # SI UNL
104 104 4 0.000000 22.789000 21.487000 0.012000 # SI UNL
105 105 4 0.000000 1.463000 12.358000 17.121000 # SI UNL
106 106 4 0.000000 4.018000 18.422001 15.414000 # SI UNL
107 107 4 0.000000 17.906000 11.546000 0.001000 # SI UNL
108 108 4 0.000000 29.177999 1.953000 25.660000 # SI UNL
109 109 4 0.000000 25.268000 4.861000 27.403000 # SI UNL
110 110 4 0.000000 27.686001 13.748000 27.122999 # SI UNL
111 111 4 0.000000 13.418000 27.417999 0.193000 # SI UNL
112 112 4 0.000000 25.034000 17.747999 27.875000 # SI UNL
113 113 4 0.000000 23.590000 22.113001 26.032000 # SI UNL
114 114 4 0.000000 25.249001 11.014000 25.473000 # SI UNL
115 115 4 0.000000 8.195000 17.320999 26.042000 # SI UNL
116 116 4 0.000000 27.462999 17.388000 17.222000 # SI UNL
117 117 4 0.000000 0.000000 19.419001 6.704000 # SI UNL
118 118 4 0.000000 1.922000 23.504999 16.941999 # SI UNL
119 119 4 0.000000 4.773000 2.636000 7.530000 # SI UNL
120 120 4 0.000000 18.799999 7.552000 27.656000 # SI UNL
121 121 4 0.000000 11.505000 4.935000 3.034000 # SI UNL
122 122 4 0.000000 30.000000 18.830000 2.597000 # SI UNL
123 123 4 0.000000 5.300000 9.873000 -0.000000 # SI UNL
124 124 4 0.000000 14.377000 24.216000 12.608000 # SI UNL
125 125 4 0.000000 18.851000 5.834000 23.162001 # SI UNL
126 126 4 0.000000 18.066999 22.926001 4.197000 # SI UNL
127 127 4 0.000000 4.597000 23.386999 14.539000 # SI UNL
128 128 4 0.000000 1.581000 0.761000 -0.000000 # SI UNL
129 129 4 0.000000 30.000000 7.196000 13.294000 # SI UNL
130 130 4 0.000000 8.175000 28.486000 27.951000 # SI UNL
131 131 4 0.000000 30.000000 30.000000 8.851000 # SI UNL
132 132 4 0.000000 27.705999 20.612000 6.551000 # SI UNL
133 133 4 0.000000 21.648001 28.017000 26.400000 # SI UNL
134 134 4 0.000000 16.381001 22.063000 10.402000 # SI UNL
135 135 4 0.000000 23.794001 5.430000 13.554000 # SI UNL
136 136 4 0.000000 0.000000 27.402000 4.155000 # SI UNL
137 137 4 0.000000 2.198000 18.591999 2.560000 # SI UNL
138 138 4 0.000000 12.344000 6.213000 29.764000 # SI UNL
139 139 4 0.000000 5.761000 0.053000 1.979000 # SI UNL
140 140 4 0.000000 6.325000 22.888000 4.392000 # SI UNL
141 141 4 0.000000 11.886000 25.988001 2.365000 # SI UNL
142 142 4 0.000000 22.676001 21.747000 17.764999 # SI UNL
143 143 4 0.000000 -0.000000 17.239000 2.871000 # SI UNL
144 144 4 0.000000 11.495000 4.233000 13.955000 # SI UNL
145 145 4 0.000000 5.272000 16.172001 6.898000 # SI UNL
146 146 4 0.000000 18.100000 26.197001 5.735000 # SI UNL
147 147 4 0.000000 18.398001 11.340000 9.385000 # SI UNL
148 148 4 0.000000 23.462000 14.920000 17.179001 # SI UNL
149 149 4 0.000000 24.790001 3.924000 1.252000 # SI UNL
150 150 4 0.000000 23.830999 28.322001 11.372000 # SI UNL
151 151 4 0.000000 2.418000 14.462000 29.166000 # SI UNL
152 152 4 0.000000 0.000000 10.495000 29.436001 # SI UNL
153 153 4 0.000000 27.774000 25.389000 -0.000000 # SI UNL
154 154 4 0.000000 30.000000 11.108000 18.646999 # SI UNL
155 155 4 0.000000 22.129000 25.879999 5.100000 # SI UNL
156 156 4 0.000000 25.684999 25.122000 25.101000 # SI UNL
157 157 4 0.000000 24.805000 28.808001 26.201000 # SI UNL
158 158 4 0.000000 13.258000 22.756001 27.285000 # SI UNL
159 159 4 0.000000 3.939000 17.768999 4.307000 # SI UNL
160 160 4 0.000000 2.602000 26.709000 27.195999 # SI UNL
161 161 4 0.000000 4.948000 3.711000 28.459999 # SI UNL
162 162 4 0.000000 20.959999 2.328000 26.530001 # SI UNL
163 163 4 0.000000 25.954000 29.959999 16.601999 # SI UNL
164 164 4 0.000000 3.054000 18.670000 6.969000 # SI UNL
165 165 4 0.000000 21.108999 14.433000 22.347000 # SI UNL
166 166 4 0.000000 5.887000 3.303000 17.586000 # SI UNL
167 167 4 0.000000 24.778000 8.221000 23.604000 # SI UNL
168 168 4 0.000000 27.292999 9.670000 12.767000 # SI UNL
169 169 4 0.000000 17.033001 18.856001 18.281000 # SI UNL
170 170 4 0.000000 26.296000 5.863000 10.490000 # SI UNL
171 171 4 0.000000 6.573000 21.415001 0.000000 # SI UNL
172 172 4 0.000000 0.893000 22.972000 29.945999 # SI UNL
173 173 4 0.000000 14.217000 18.583000 25.573999 # SI UNL
174 174 4 0.000000 18.615999 12.637000 7.109000 # SI UNL
175 175 4 0.000000 2.766000 13.047000 19.688000 # SI UNL
176 176 4 0.000000 21.318001 24.736000 10.567000 # SI UNL
177 177 4 0.000000 0.553000 4.692000 12.987000 # SI UNL
178 178 4 0.000000 0.000000 27.391001 0.666000 # SI UNL
179 179 4 0.000000 5.889000 23.612000 1.210000 # SI UNL
180 180 4 0.000000 18.983000 22.326000 8.759000 # SI UNL
181 181 4 0.000000 15.376000 20.896999 26.775999 # SI UNL
182 182 4 0.000000 4.619000 25.680000 23.847000 # SI UNL
183 183 4 0.000000 10.922000 23.334999 1.928000 # SI UNL
184 184 4 0.000000 22.767000 27.851999 3.498000 # SI UNL
185 185 4 0.000000 19.952000 30.000999 30.000999 # SI UNL
186 186 4 0.000000 24.993000 24.931000 15.859000 # SI UNL
187 187 4 0.000000 11.468000 10.650000 20.125000 # SI UNL
188 188 4 0.000000 23.282000 28.910999 22.718000 # SI UNL
189 189 4 0.000000 2.228000 6.143000 22.132000 # SI UNL
190 190 4 0.000000 7.811000 29.152000 4.645000 # SI UNL
191 191 4 0.000000 0.000000 19.886999 3.061000 # SI UNL
192 192 4 0.000000 25.750000 23.127001 20.381001 # SI UNL
193 193 4 0.000000 7.126000 29.993000 -0.000000 # SI UNL
194 194 4 0.000000 5.533000 27.721001 3.267000 # SI UNL
195 195 4 0.000000 6.761000 8.441000 2.779000 # SI UNL
196 196 4 0.000000 19.253000 5.684000 12.837000 # SI UNL
197 197 4 0.000000 7.321000 26.023001 27.903000 # SI UNL
198 198 4 0.000000 -0.000000 27.670000 28.114000 # SI UNL
199 199 4 0.000000 19.337999 21.763000 18.687000 # SI UNL
200 200 4 0.000000 0.809000 25.493999 15.692000 # SI UNL
201 201 4 0.000000 4.678000 17.945000 23.896000 # SI UNL
202 202 4 0.000000 -0.000000 5.158000 27.216999 # SI UNL
203 203 4 0.000000 2.399000 9.068000 9.895000 # SI UNL
204 204 4 0.000000 1.182000 27.705999 18.864000 # SI UNL
205 205 4 0.000000 18.028999 4.983000 16.709000 # SI UNL
206 206 4 0.000000 16.240999 -0.000000 2.654000 # SI UNL
207 207 4 0.000000 23.129000 9.563000 5.931000 # SI UNL
208 208 4 0.000000 14.614000 0.986000 11.260000 # SI UNL
209 209 4 0.000000 30.000000 19.576000 23.756001 # SI UNL
210 210 4 0.000000 4.896000 20.524000 4.544000 # SI UNL
211 211 4 0.000000 11.596000 9.656000 11.640000 # SI UNL
212 212 4 0.000000 16.136000 24.302999 22.231001 # SI UNL
213 213 4 0.000000 17.191999 22.250999 25.034000 # SI UNL
214 214 4 0.000000 29.670000 20.896000 16.722000 # SI UNL
215 215 4 0.000000 -0.000000 16.627001 25.025999 # SI UNL
216 216 4 0.000000 29.320000 17.725000 30.000000 # SI UNL
217 217 4 0.000000 27.509001 13.442000 0.000000 # SI UNL
218 218 4 0.000000 21.614000 7.089000 7.967000 # SI UNL
219 219 4 0.000000 18.799000 21.018000 30.000000 # SI UNL
220 220 4 0.000000 6.875000 20.077999 28.201000 # SI UNL
221 221 4 0.000000 24.915001 16.663000 21.813000 # SI UNL
222 222 4 0.000000 30.000000 14.355000 4.695000 # SI UNL
223 223 4 0.000000 10.794000 7.921000 23.847000 # SI UNL
224 224 4 0.000000 6.029000 15.282000 9.314000 # SI UNL
225 225 4 0.000000 4.422000 27.997999 15.893000 # SI UNL
226 226 4 0.000000 2.532000 17.882999 10.545000 # SI UNL
227 227 4 0.000000 21.264000 21.533001 14.822000 # SI UNL
228 228 4 0.000000 0.000000 9.102000 0.073000 # SI UNL
229 229 4 0.000000 30.000000 27.107000 2.593000 # SI UNL
230 230 4 0.000000 22.909000 19.202999 27.516001 # SI UNL
231 231 4 0.000000 11.055000 28.598000 7.940000 # SI UNL
232 232 4 0.000000 28.208000 12.985000 19.087999 # SI UNL
233 233 4 0.000000 25.292000 19.615000 26.083000 # SI UNL
234 234 4 0.000000 8.233000 25.819000 12.877000 # SI UNL
235 235 4 0.000000 20.792000 23.250000 0.000000 # SI UNL
236 236 4 0.000000 8.757000 -0.000000 7.696000 # SI UNL
237 237 4 0.000000 14.373000 8.817000 27.638000 # SI UNL
238 238 4 0.000000 13.669000 19.823999 22.270000 # SI UNL
239 239 4 0.000000 12.023000 7.130000 1.740000 # SI UNL
240 240 4 0.000000 5.934000 6.068000 16.354000 # SI UNL
241 241 4 0.000000 6.276000 6.374000 11.474000 # SI UNL
242 242 4 0.000000 8.300000 23.690001 0.000000 # SI UNL
243 243 4 0.000000 23.177999 15.407000 11.318000 # SI UNL
244 244 4 0.000000 0.493000 22.747000 21.863001 # SI UNL
245 245 4 0.000000 20.562000 0.972000 5.819000 # SI UNL
246 246 4 0.000000 9.232000 25.641001 8.128000 # SI UNL
247 247 4 0.000000 10.296000 16.115000 27.768000 # SI UNL
248 248 4 0.000000 28.445000 21.527000 23.025000 # SI UNL
249 249 4 0.000000 20.704000 25.049000 24.733000 # SI UNL
250 250 4 0.000000 21.763000 5.976000 22.042999 # SI UNL
251 251 4 0.000000 25.886999 19.549000 8.075000 # SI UNL
252 252 4 0.000000 4.301000 0.359000 4.293000 # SI UNL
253 253 4 0.000000 1.775000 28.487000 25.489000 # SI UNL
254 254 4 0.000000 0.204000 2.457000 21.399000 # SI UNL
255 255 4 0.000000 14.294000 25.305000 16.346001 # SI UNL
256 256 4 0.000000 24.469000 11.216000 3.281000 # SI UNL
257 257 4 0.000000 8.738000 24.663000 29.695999 # SI UNL
258 258 4 0.000000 2.061000 11.976000 30.000000 # SI UNL
259 259 4 0.000000 4.287000 6.965000 9.873000 # SI UNL
260 260 4 0.000000 4.449000 13.306000 8.127000 # SI UNL
261 261 4 0.000000 0.000000 18.004000 15.752000 # SI UNL
262 262 4 0.000000 4.493000 23.184000 23.103001 # SI UNL
263 263 4 0.000000 1.332000 1.844000 16.323999 # SI UNL
264 264 4 0.000000 19.850000 25.445000 29.905001 # SI UNL
265 265 4 0.000000 3.636000 24.750000 11.024000 # SI UNL
266 266 4 0.000000 20.351000 10.494000 25.233999 # SI UNL
267 267 4 0.000000 8.270000 3.890000 21.808001 # SI UNL
268 268 4 0.000000 22.573000 17.481001 7.191000 # SI UNL
269 269 4 0.000000 24.938999 26.105000 0.000000 # SI UNL
270 270 4 0.000000 22.976999 4.288000 19.834999 # SI UNL
271 271 4 0.000000 25.789000 0.000000 9.598000 # SI UNL
272 272 4 0.000000 8.964000 10.005000 8.540000 # SI UNL
273 273 4 0.000000 14.725000 13.033000 2.099000 # SI UNL
274 274 4 0.000000 6.191000 8.403000 26.794001 # SI UNL
275 275 4 0.000000 12.062000 4.896000 11.472000 # SI UNL
276 276 4 0.000000 3.655000 13.560000 16.028000 # SI UNL
277 277 4 0.000000 13.522000 16.524000 7.394000 # SI UNL
278 278 4 0.000000 20.420000 24.643000 14.344000 # SI UNL
279 279 4 0.000000 0.000000 12.882000 6.552000 # SI UNL
280 280 4 0.000000 3.282000 22.604000 8.616000 # SI UNL
281 281 4 0.000000 6.177000 24.996000 30.000000 # SI UNL
282 282 4 0.000000 30.000000 5.024000 18.285000 # SI UNL
283 283 4 0.000000 2.246000 29.632999 5.314000 # SI UNL
284 284 4 0.000000 22.327999 26.226999 30.000999 # SI UNL
285 285 4 0.000000 25.490999 28.017000 14.459000 # SI UNL
286 286 4 0.000000 8.035000 -0.000000 18.726999 # SI UNL
287 287 4 0.000000 13.832000 0.000000 18.101999 # SI UNL
288 288 4 0.000000 25.681000 24.863001 13.352000 # SI UNL
289 289 4 0.000000 6.146000 18.096001 13.754000 # SI UNL
290 290 4 0.000000 28.584000 21.674999 28.795000 # SI UNL
291 291 4 0.000000 6.292000 3.261000 24.277000 # SI UNL
292 292 4 0.000000 7.906000 13.908000 23.296000 # SI UNL
293 293 4 0.000000 12.977000 20.639999 15.930000 # SI UNL
294 294 4 0.000000 22.343000 7.973000 10.780000 # SI UNL
295 295 4 0.000000 16.896000 4.002000 7.169000 # SI UNL
296 296 4 0.000000 14.316000 18.159000 2.108000 # SI UNL
297 297 4 0.000000 24.288000 2.415000 30.000000 # SI UNL
298 298 4 0.000000 25.795000 13.861000 24.936001 # SI UNL
299 299 4 0.000000 11.500000 21.687000 0.000000 # SI UNL
300 300 4 0.000000 25.806999 5.120000 5.124000 # SI UNL
301 301 4 0.000000 0.000000 25.052999 23.083000 # SI UNL
302 302 4 0.000000 2.722000 16.024000 -0.000000 # SI UNL
303 303 4 0.000000 2.829000 29.923000 15.020000 # SI UNL
304 304 4 0.000000 26.841000 -0.000000 22.007000 # SI UNL
305 305 4 0.000000 7.566000 11.543000 4.330000 # SI UNL
306 306 4 0.000000 10.224000 11.984000 3.807000 # SI UNL
307 307 4 0.000000 13.756000 10.677000 1.581000 # SI UNL
308 308 4 0.000000 21.124001 4.575000 14.389000 # SI UNL
309 309 4 0.000000 4.072000 20.872999 25.153000 # SI UNL
310 310 4 0.000000 -0.000000 2.567000 29.226999 # SI UNL
311 311 4 0.000000 8.298000 10.534000 0.000000 # SI UNL
312 312 4 0.000000 13.885000 10.469000 7.220000 # SI UNL
313 313 4 0.000000 24.896000 27.362000 24.042000 # SI UNL
314 314 4 0.000000 4.016000 28.184000 24.205999 # SI UNL
315 315 4 0.000000 5.545000 9.575000 17.180000 # SI UNL
316 316 4 0.000000 27.650000 2.681000 11.188000 # SI UNL
317 317 4 0.000000 28.014000 6.298000 14.711000 # SI UNL
318 318 4 0.000000 22.155001 19.219999 20.653999 # SI UNL
319 319 4 0.000000 20.230000 4.193000 28.187000 # SI UNL
320 320 4 0.000000 15.505000 18.281000 6.574000 # SI UNL
321 321 4 0.000000 0.060000 7.264000 25.674999 # SI UNL
322 322 4 0.000000 10.822000 26.233000 17.954000 # SI UNL
323 323 4 0.000000 18.730000 0.628000 21.509001 # SI UNL
324 324 4 0.000000 14.330000 25.084000 6.894000 # SI UNL
325 325 4 0.000000 13.028000 13.692000 18.461000 # SI UNL
326 326 4 0.000000 24.521000 9.846000 19.186001 # SI UNL
327 327 4 0.000000 11.786000 1.182000 3.878000 # SI UNL
328 328 4 0.000000 19.544001 20.945999 3.386000 # SI UNL
329 329 4 0.000000 25.129999 20.111000 17.187000 # SI UNL
330 330 4 0.000000 0.687000 5.056000 7.161000 # SI UNL
331 331 4 0.000000 16.344999 10.656000 2.467000 # SI UNL
332 332 4 0.000000 4.901000 1.877000 12.823000 # SI UNL
333 333 4 0.000000 14.094000 14.139000 27.048000 # SI UNL
334 334 4 0.000000 20.351000 10.488000 14.219000 # SI UNL
335 335 4 0.000000 17.489000 17.950001 29.594999 # SI UNL
336 336 4 0.000000 29.997000 22.985001 24.731001 # SI UNL
337 337 4 0.000000 8.697000 25.731001 20.408001 # SI UNL
338 338 4 0.000000 10.713000 18.957001 5.359000 # SI UNL
339 339 4 0.000000 8.101000 19.698000 5.181000 # SI UNL
340 340 4 0.000000 11.718000 17.587000 13.124000 # SI UNL
341 341 4 0.000000 30.000000 30.000000 0.076000 # SI UNL
342 342 4 0.000000 1.497000 20.827000 1.154000 # SI UNL
343 343 4 0.000000 4.861000 7.310000 0.003000 # SI UNL
344 344 4 0.000000 2.546000 23.641001 0.427000 # SI UNL
345 345 4 0.000000 30.000000 5.289000 6.970000 # SI UNL
346 346 4 0.000000 12.329000 15.920000 9.630000 # SI UNL
347 347 4 0.000000 23.267000 4.406000 7.206000 # SI UNL
348 348 4 0.000000 18.079000 26.202999 3.135000 # SI UNL
349 349 4 0.000000 20.731001 21.954000 10.798000 # SI UNL
350 350 4 0.000000 7.846000 18.851999 23.542999 # SI UNL
351 351 4 0.000000 11.407000 3.567000 9.336000 # SI UNL
352 352 4 0.000000 21.540001 7.459000 16.547001 # SI UNL
353 353 4 0.000000 1.797000 19.172001 14.281000 # SI UNL
354 354 4 0.000000 26.658001 15.218000 20.106001 # SI UNL
355 355 4 0.000000 23.974001 19.694000 29.895000 # SI UNL
356 356 4 0.000000 9.587000 21.735001 3.833000 # SI UNL
357 357 4 0.000000 5.468000 30.000000 20.070999 # SI UNL
358 358 4 0.000000 -0.001000 27.688999 14.558000 # SI UNL
359 359 4 0.000000 19.945999 5.193000 25.778999 # SI UNL
360 360 4 0.000000 6.007000 15.878000 4.349000 # SI UNL
361 1 1 0.000000 12.351000 1.783000 6.343000 # CA UNL
362 2 1 0.000000 5.392000 12.920000 20.518999 # CA UNL
363 3 1 0.000000 24.966999 16.545000 8.975000 # CA UNL
364 4 1 0.000000 0.007000 21.844000 27.777000 # CA UNL
365 5 1 0.000000 27.032000 1.894000 17.270000 # CA UNL
366 6 1 0.000000 3.928000 8.063000 5.638000 # CA UNL
367 7 1 0.000000 20.785999 9.497000 9.361000 # CA UNL
368 8 1 0.000000 0.016000 24.174000 26.488001 # CA UNL
369 9 1 0.000000 0.000000 0.767000 10.597000 # CA UNL
370 10 1 0.000000 2.548000 4.996000 24.566999 # CA UNL
371 11 1 0.000000 3.708000 -0.000000 21.604000 # CA UNL
372 12 1 0.000000 16.419001 27.973000 28.211000 # CA UNL
373 13 1 0.000000 28.344999 7.283000 20.847000 # CA UNL
374 14 1 0.000000 24.474001 1.493000 17.499001 # CA UNL
375 15 1 0.000000 16.811001 0.001000 17.518000 # CA UNL
376 16 1 0.000000 3.936000 21.987000 2.484000 # CA UNL
377 17 1 0.000000 12.360000 30.000000 -0.000000 # CA UNL
378 18 1 0.000000 29.999001 28.993000 18.844999 # CA UNL
379 19 1 0.000000 27.204000 0.000000 7.203000 # CA UNL
380 20 1 0.000000 3.626000 4.792000 20.406000 # CA UNL
381 21 1 0.000000 27.834000 16.513000 11.658000 # CA UNL
382 22 1 0.000000 10.473000 27.429001 27.349001 # CA UNL
383 23 1 0.000000 7.830000 6.642000 7.558000 # CA UNL
384 24 1 0.000000 -0.000000 30.000000 13.367000 # CA UNL
385 25 1 0.000000 27.327000 22.007999 18.406000 # CA UNL
386 26 1 0.000000 4.417000 15.717000 13.967000 # CA UNL
387 27 1 0.000000 29.996000 16.365999 7.301000 # CA UNL
388 28 1 0.000000 8.340000 3.123000 9.421000 # CA UNL
389 29 1 0.000000 18.007000 12.941000 14.290000 # CA UNL
390 30 1 0.000000 27.763000 17.521000 2.807000 # CA UNL
391 31 1 0.000000 12.813000 26.129000 4.790000 # CA UNL
392 32 1 0.000000 0.008000 14.465000 4.108000 # CA UNL
393 33 1 0.000000 0.005000 12.826000 28.245001 # CA UNL
394 34 1 0.000000 0.000000 18.655001 18.275000 # CA UNL
395 35 1 0.000000 20.386999 20.783001 0.715000 # CA UNL
396 36 1 0.000000 24.868000 25.476000 19.700001 # CA UNL
397 37 1 0.000000 20.608000 2.593000 3.437000 # CA UNL
398 38 1 0.000000 16.341000 25.871000 14.088000 # CA UNL
399 39 1 0.000000 25.891001 11.775000 12.165000 # CA UNL
400 40 1 0.000000 15.227000 12.377000 16.059999 # CA UNL
401 41 1 0.000000 6.212000 10.916000 2.200000 # CA UNL
402 42 1 0.000000 0.000000 -0.000000 28.813999 # CA UNL
403 43 1 0.000000 7.461000 2.135000 6.200000 # CA UNL
404 44 1 0.000000 26.355000 6.953000 19.205999 # CA UNL
405 45 1 0.000000 30.000000 22.951000 14.778000 # CA UNL
406 46 1 0.000000 2.275000 20.632999 12.178000 # CA UNL
407 47 1 0.000000 12.762000 6.317000 23.288000 # CA UNL
408 48 1 0.000000 13.933000 4.145000 18.680000 # CA UNL
409 49 1 0.000000 1.235000 18.320999 20.624001 # CA UNL
410 50 1 0.000000 8.430000 30.000000 25.839001 # CA UNL
411 51 1 0.000000 17.632000 13.081000 2.083000 # CA UNL
412 52 1 0.000000 3.396000 5.812000 29.985001 # CA UNL
413 53 1 0.000000 2.247000 10.501000 19.791000 # CA UNL
414 54 1 0.000000 21.816000 23.778999 22.125999 # CA UNL
415 55 1 0.000000 7.206000 7.506000 18.194000 # CA UNL
416 56 1 0.000000 13.693000 24.228001 1.116000 # CA UNL
417 57 1 0.000000 -0.000000 -0.001000 17.583000 # CA UNL
418 58 1 0.000000 12.498000 15.744000 21.048000 # CA UNL
419 59 1 0.000000 27.150000 24.686001 4.140000 # CA UNL
420 60 1 0.000000 8.940000 12.425000 25.171000 # CA UNL
421 61 1 0.000000 -0.000000 30.000000 18.542999 # CA UNL
422 62 1 0.000000 -0.000000 30.000000 6.655000 # CA UNL
423 63 1 0.000000 23.162001 24.195000 24.312000 # CA UNL
424 64 1 0.000000 7.212000 16.364000 22.795000 # CA UNL
425 65 1 0.000000 15.194000 29.841000 6.936000 # CA UNL
426 66 1 0.000000 13.056000 18.590000 29.985001 # CA UNL
427 67 1 0.000000 15.605000 2.415000 1.932000 # CA UNL
428 68 1 0.000000 20.684999 18.653999 5.261000 # CA UNL
429 69 1 0.000000 20.812000 14.089000 12.994000 # CA UNL
430 70 1 0.000000 4.436000 23.044001 17.419001 # CA UNL
431 71 1 0.000000 27.625000 13.329000 21.608999 # CA UNL
432 72 1 0.000000 3.649000 0.117000 6.863000 # CA UNL
433 73 1 0.000000 2.355000 8.003000 0.001000 # CA UNL
434 74 1 0.000000 24.959000 29.999001 29.813999 # CA UNL
435 75 1 0.000000 7.990000 1.432000 11.755000 # CA UNL
436 76 1 0.000000 8.853000 15.085000 18.129000 # CA UNL
437 77 1 0.000000 20.582001 19.115999 30.000000 # CA UNL
438 78 1 0.000000 4.421000 16.271000 2.157000 # CA UNL
439 79 1 0.000000 0.000000 30.000000 0.424000 # CA UNL
440 80 1 0.000000 3.758000 22.868000 5.672000 # CA UNL
441 81 1 0.000000 23.959999 22.247000 22.334000 # CA UNL
442 82 1 0.000000 21.778999 15.139000 2.090000 # CA UNL
443 83 1 0.000000 10.698000 24.281000 4.509000 # CA UNL
444 84 1 0.000000 21.323000 13.150000 0.000000 # CA UNL
445 85 1 0.000000 12.719000 11.297000 17.479000 # CA UNL
446 86 1 0.000000 30.000000 3.711000 23.735001 # CA UNL
447 87 1 0.000000 9.106000 29.999001 30.000000 # CA UNL
448 88 1 0.000000 19.612000 25.816999 16.518000 # CA UNL
449 89 1 0.000000 1.718000 12.772000 8.785000 # CA UNL
450 90 1 0.000000 24.507000 -0.000000 25.490000 # CA UNL
451 91 1 0.000000 0.000000 27.964001 11.748000 # CA UNL
452 92 1 0.000000 4.421000 8.184000 28.735001 # CA UNL
453 93 1 0.000000 19.524000 0.024000 26.327000 # CA UNL
454 94 1 0.000000 12.666000 2.233000 17.455999 # CA UNL
455 95 1 0.000000 1.941000 22.061001 26.052999 # CA UNL
456 96 1 0.000000 16.282000 15.502000 1.891000 # CA UNL
457 97 1 0.000000 18.243000 2.646000 0.001000 # CA UNL
458 98 1 0.000000 14.103000 22.645000 17.636999 # CA UNL
459 99 1 0.000000 15.698000 16.889000 22.617001 # CA UNL
460 100 1 0.000000 5.888000 5.365000 19.252001 # CA UNL
461 101 1 0.000000 20.653999 27.808001 28.792999 # CA UNL
462 102 1 0.000000 9.173000 21.726999 9.189000 # CA UNL
463 103 1 0.000000 28.750000 11.507000 29.027000 # CA UNL
464 104 1 0.000000 23.476000 15.226000 6.265000 # CA UNL
465 105 1 0.000000 26.129999 22.655001 6.870000 # CA UNL
466 106 1 0.000000 27.931000 27.941999 20.160000 # CA UNL
467 107 1 0.000000 2.586000 5.411000 27.316000 # CA UNL
468 108 1 0.000000 9.396000 15.194000 9.147000 # CA UNL
469 109 1 0.000000 22.997000 12.389000 28.761999 # CA UNL
470 110 1 0.000000 20.275999 27.704000 5.087000 # CA UNL
471 111 1 0.000000 4.414000 11.876000 25.900999 # CA UNL
472 112 1 0.000000 22.659000 27.948999 0.544000 # CA UNL
473 113 1 0.000000 29.999001 18.907000 8.465000 # CA UNL
474 114 1 0.000000 19.094000 5.378000 3.809000 # CA UNL
475 115 1 0.000000 24.926001 0.869000 1.396000 # CA UNL
476 116 1 0.000000 7.095000 20.746000 18.455999 # CA UNL
477 117 1 0.000000 12.888000 30.000000 15.245000 # CA UNL
478 118 1 0.000000 2.141000 6.750000 4.281000 # CA UNL
479 119 1 0.000000 -0.000000 20.605000 20.474001 # CA UNL
480 120 1 0.000000 18.392000 1.190000 29.834000 # CA UNL
481 121 1 0.000000 26.100000 14.879000 10.617000 # CA UNL
482 122 1 0.000000 0.000000 20.843000 13.420000 # CA UNL
483 123 1 0.000000 14.479000 18.691999 17.628000 # CA UNL
484 124 1 0.000000 0.562000 29.999001 30.000000 # CA UNL
485 125 1 0.000000 22.910999 18.572001 17.101000 # CA UNL
486 126 1 0.000000 27.773001 5.090000 0.881000 # CA UNL
487 127 1 0.000000 15.387000 6.619000 24.971001 # CA UNL
488 128 1 0.000000 0.000000 6.442000 2.837000 # CA UNL
489 129 1 0.000000 14.861000 29.716999 30.000000 # CA UNL
490 130 1 0.000000 27.263000 13.406000 30.000000 # CA UNL
491 131 1 0.000000 25.570000 4.916000 20.618000 # CA UNL
492 132 1 0.000000 22.915001 17.684999 10.093000 # CA UNL
493 133 1 0.000000 1.433000 10.490000 7.572000 # CA UNL
494 134 1 0.000000 27.747000 29.985001 13.370000 # CA UNL
495 135 1 0.000000 19.336000 18.514999 0.000000 # CA UNL
496 136 1 0.000000 3.076000 10.882000 0.893000 # CA UNL
497 137 1 0.000000 21.325001 23.284000 26.544001 # CA UNL
498 138 1 0.000000 10.850000 6.289000 25.870001 # CA UNL
499 139 1 0.000000 4.648000 0.428000 16.225000 # CA UNL
500 140 1 0.000000 6.478000 14.345000 1.607000 # CA UNL
501 141 1 0.000000 17.170000 27.294001 16.475000 # CA UNL
502 142 1 0.000000 9.870000 12.384000 9.064000 # CA UNL
503 143 1 0.000000 16.101999 20.860001 12.976000 # CA UNL
504 144 1 0.000000 10.382000 17.947001 10.588000 # CA UNL
505 145 1 0.000000 1.407000 4.325000 18.010000 # CA UNL
506 146 1 0.000000 7.021000 12.314000 30.000000 # CA UNL
507 147 1 0.000000 0.000000 24.573000 0.209000 # CA UNL
508 148 1 0.000000 29.363001 26.534000 18.288000 # CA UNL
509 149 1 0.000000 21.393999 0.000000 11.724000 # CA UNL
510 150 1 0.000000 20.230000 27.725000 2.487000 # CA UNL
511 151 1 0.000000 14.379000 11.270000 24.811001 # CA UNL
512 152 1 0.000000 17.222000 24.922001 24.511000 # CA UNL
513 153 1 0.000000 29.613001 29.993000 24.351999 # CA UNL
514 154 1 0.000000 4.288000 5.302000 3.945000 # CA UNL