LAMMPS data file. CGCMM style. atom_style full generated by VMD/TopoTools v1.2 on Fri May 02 23:46:46 +0330 2025
 1890 atoms
 0 bonds
 0 angles
 0 dihedrals
 0 impropers
 4 atom types
 0 bond types
 0 angle types
 0 dihedral types
 0 improper types
 0.000000 30.000000  xlo xhi
 0.000000 30.000000  ylo yhi
 0.000000 30.000000  zlo zhi

# Pair Coeffs
#
# 1  CA
# 2  O
# 3  P
# 4  SI

 Masses

 1 40.077999 # CA
 2 15.999400 # O
 3 30.973761 # P
 4 28.085501 # SI

 Atoms

1 1 4 0.000000 27.929001 1.303000 0.911000 # SI UNL
2 2 4 0.000000 5.731000 0.011000 22.483000 # SI UNL
3 3 4 0.000000 12.163000 30.000000 9.647000 # SI UNL
4 4 4 0.000000 7.781000 30.000000 26.417999 # SI UNL
5 5 4 0.000000 26.416000 10.821000 20.781000 # SI UNL
6 6 4 0.000000 15.045000 10.176000 27.375999 # SI UNL
7 7 4 0.000000 11.649000 -0.000000 29.582001 # SI UNL
8 8 4 0.000000 -0.000000 11.305000 3.646000 # SI UNL
9 9 4 0.000000 6.132000 25.771999 4.217000 # SI UNL
10 10 4 0.000000 3.811000 2.326000 21.757999 # SI UNL
11 11 4 0.000000 0.007000 20.959999 29.990000 # SI UNL
12 12 4 0.000000 3.413000 26.448000 27.664000 # SI UNL
13 13 4 0.000000 5.561000 4.349000 16.514000 # SI UNL
14 14 4 0.000000 30.000000 23.757999 17.547001 # SI UNL
15 15 4 0.000000 8.492000 3.715000 19.709000 # SI UNL
16 16 4 0.000000 15.493000 28.013000 24.798000 # SI UNL
17 17 4 0.000000 11.114000 18.004999 12.011000 # SI UNL
18 18 4 0.000000 13.498000 3.201000 11.708000 # SI UNL
19 19 4 0.000000 16.921000 30.000000 12.662000 # SI UNL
20 20 4 0.000000 20.076000 16.032000 30.000000 # SI UNL
21 21 4 0.000000 9.859000 24.563999 0.000000 # SI UNL
22 22 4 0.000000 21.666000 19.170000 26.282000 # SI UNL
23 23 4 0.000000 0.210000 10.777000 21.782000 # SI UNL
24 24 4 0.000000 0.005000 24.823999 9.232000 # SI UNL
25 25 4 0.000000 26.052999 30.000000 10.999000 # SI UNL
26 26 4 0.000000 2.558000 23.664000 4.565000 # SI UNL
27 27 4 0.000000 28.077000 0.373000 7.992000 # SI UNL
28 28 4 0.000000 16.240999 16.813999 13.319000 # SI UNL
29 29 4 0.000000 11.193000 7.002000 19.927000 # SI UNL
30 30 4 0.000000 7.088000 29.982000 7.105000 # SI UNL
31 31 4 0.000000 26.768000 21.537001 28.937000 # SI UNL
32 32 4 0.000000 8.082000 1.822000 26.658001 # SI UNL
33 33 4 0.000000 24.607000 19.851000 4.421000 # SI UNL
34 34 4 0.000000 30.000000 7.214000 26.929001 # SI UNL
35 35 4 0.000000 9.758000 18.542000 26.191000 # SI UNL
36 36 4 0.000000 30.000000 9.231000 24.975000 # SI UNL
37 37 4 0.000000 9.376000 14.949000 1.049000 # SI UNL
38 38 4 0.000000 30.000000 23.099001 9.388000 # SI UNL
39 39 4 0.000000 23.260000 15.295000 27.284000 # SI UNL
40 40 4 0.000000 10.221000 23.385000 14.738000 # SI UNL
41 41 4 0.000000 28.816000 8.998000 7.080000 # SI UNL
42 42 4 0.000000 14.349000 26.007000 4.532000 # SI UNL
43 43 4 0.000000 27.613001 28.065001 19.436001 # SI UNL
44 44 4 0.000000 24.211000 22.556000 0.094000 # SI UNL
45 45 4 0.000000 0.253000 11.183000 17.353001 # SI UNL
46 46 4 0.000000 3.833000 19.573000 15.788000 # SI UNL
47 47 4 0.000000 30.000000 17.760000 23.322001 # SI UNL
48 48 4 0.000000 30.000000 0.279000 26.464001 # SI UNL
49 49 4 0.000000 28.393000 27.931999 25.777000 # SI UNL
50 50 4 0.000000 27.422001 15.884000 28.437000 # SI UNL
51 51 4 0.000000 15.044000 30.000000 2.405000 # SI UNL
52 52 4 0.000000 22.194000 17.257999 28.615999 # SI UNL
53 53 4 0.000000 30.000000 17.565001 30.000000 # SI UNL
54 54 4 0.000000 24.582001 11.183000 23.860001 # SI UNL
55 55 4 0.000000 8.001000 17.000999 25.052000 # SI UNL
56 56 4 0.000000 27.044001 17.007999 16.358000 # SI UNL
57 57 4 0.000000 -0.000000 20.247999 7.551000 # SI UNL
58 58 4 0.000000 2.252000 23.219000 15.564000 # SI UNL
59 59 4 0.000000 4.687000 5.305000 9.178000 # SI UNL
60 60 4 0.000000 17.091000 10.569000 29.537001 # SI UNL
61 61 4 0.000000 10.513000 3.679000 2.160000 # SI UNL
62 62 4 0.000000 30.000000 18.099001 4.089000 # SI UNL
63 63 4 0.000000 5.260000 10.050000 -0.000000 # SI UNL
64 64 4 0.000000 13.793000 27.187000 12.504000 # SI UNL
65 65 4 0.000000 19.174000 9.098000 20.837999 # SI UNL
66 66 4 0.000000 18.402000 23.875000 5.614000 # SI UNL
67 67 4 0.000000 4.773000 21.948000 15.302000 # SI UNL
68 68 4 0.000000 2.336000 1.337000 -0.000000 # SI UNL
69 69 4 0.000000 29.997999 8.625000 11.956000 # SI UNL
70 70 4 0.000000 10.293000 29.431999 26.066000 # SI UNL
71 71 4 0.000000 30.000000 30.000000 8.137000 # SI UNL
72 72 4 0.000000 29.996000 21.191999 5.458000 # SI UNL
73 73 4 0.000000 21.611000 29.895000 27.666000 # SI UNL
74 74 4 0.000000 16.125999 23.320999 12.456000 # SI UNL
75 75 4 0.000000 24.959999 4.492000 15.704000 # SI UNL
76 76 4 0.000000 -0.000000 27.790001 2.631000 # SI UNL
77 77 4 0.000000 2.435000 19.693001 2.281000 # SI UNL
78 78 4 0.000000 14.997000 6.321000 27.625000 # SI UNL
79 79 4 0.000000 1.372000 27.945000 28.698000 # SI UNL
80 80 4 0.000000 7.197000 23.170000 5.458000 # SI UNL
81 81 4 0.000000 10.722000 24.683001 2.450000 # SI UNL
82 82 4 0.000000 19.999001 18.591999 16.299000 # SI UNL
83 83 4 0.000000 1.642000 16.513000 -0.002000 # SI UNL
84 84 4 0.000000 12.741000 7.045000 14.390000 # SI UNL
85 85 4 0.000000 3.747000 17.771999 8.970000 # SI UNL
86 86 4 0.000000 14.848000 27.799000 6.349000 # SI UNL
87 87 4 0.000000 18.059999 11.042000 9.880000 # SI UNL
88 88 4 0.000000 30.000000 14.264000 12.676000 # SI UNL
89 89 4 0.000000 23.634001 4.421000 3.836000 # SI UNL
90 90 4 0.000000 -0.000000 18.306000 5.822000 # SI UNL
91 91 4 0.000000 1.691000 15.448000 28.007000 # SI UNL
92 92 4 0.000000 0.332000 8.592000 27.436001 # SI UNL
93 93 4 0.000000 28.124001 25.957001 -0.001000 # SI UNL
94 94 4 0.000000 29.993999 9.291000 17.952999 # SI UNL
95 95 4 0.000000 20.396000 25.176001 6.752000 # SI UNL
96 96 4 0.000000 21.872000 25.327999 23.896999 # SI UNL
97 97 4 0.000000 26.173000 27.777000 27.862000 # SI UNL
98 98 4 0.000000 14.225000 21.886999 26.702000 # SI UNL
99 99 4 0.000000 4.604000 18.191999 5.243000 # SI UNL
100 100 4 0.000000 0.770000 28.608000 25.003000 # SI UNL
101 101 4 0.000000 4.473000 2.628000 28.743000 # SI UNL
102 102 4 0.000000 21.787001 3.497000 27.104000 # SI UNL
103 103 4 0.000000 26.973000 30.000000 17.822001 # SI UNL
104 104 4 0.000000 3.140000 20.524000 8.630000 # SI UNL
105 105 4 0.000000 20.580000 13.335000 22.250000 # SI UNL
106 106 4 0.000000 6.060000 6.897000 16.347000 # SI UNL
107 107 4 0.000000 28.004999 7.295000 25.263000 # SI UNL
108 108 4 0.000000 27.687000 12.066000 14.658000 # SI UNL
109 109 4 0.000000 17.153999 18.306999 20.634001 # SI UNL
110 110 4 0.000000 27.336000 4.805000 10.222000 # SI UNL
111 111 4 0.000000 3.612000 18.099001 0.598000 # SI UNL
112 112 4 0.000000 1.323000 22.306999 28.143999 # SI UNL
113 113 4 0.000000 13.587000 18.799999 24.224001 # SI UNL
114 114 4 0.000000 17.245001 14.551000 7.546000 # SI UNL
115 115 4 0.000000 2.340000 13.265000 19.091000 # SI UNL
116 116 4 0.000000 20.832001 25.143000 11.229000 # SI UNL
117 117 4 0.000000 1.503000 4.541000 14.343000 # SI UNL
118 118 4 0.000000 -0.000000 27.400999 0.060000 # SI UNL
119 119 4 0.000000 3.687000 25.233000 2.080000 # SI UNL
120 120 4 0.000000 16.833000 21.427999 8.573000 # SI UNL
121 121 4 0.000000 14.400000 19.292999 26.643999 # SI UNL
122 122 4 0.000000 2.395000 25.608000 22.694000 # SI UNL
123 123 4 0.000000 7.176000 25.930000 -0.000000 # SI UNL
124 124 4 0.000000 25.389000 27.750999 3.697000 # SI UNL
125 125 4 0.000000 13.624000 21.025999 0.001000 # SI UNL
126 126 4 0.000000 25.028000 26.635000 16.389000 # SI UNL
127 127 4 0.000000 11.252000 11.745000 21.284000 # SI UNL
128 128 4 0.000000 22.004999 29.615999 23.172001 # SI UNL
129 129 4 0.000000 3.569000 7.157000 21.874001 # SI UNL
130 130 4 0.000000 6.605000 30.000000 4.550000 # SI UNL
131 131 4 0.000000 -0.000000 18.783001 2.335000 # SI UNL
132 132 4 0.000000 23.652000 21.559999 17.997000 # SI UNL
133 133 4 0.000000 6.510000 30.000000 1.952000 # SI UNL
134 134 4 0.000000 4.732000 28.049000 3.951000 # SI UNL
135 135 4 0.000000 6.978000 9.627000 3.264000 # SI UNL
136 136 4 0.000000 19.368000 4.161000 12.771000 # SI UNL
137 137 4 0.000000 6.326000 27.672001 30.000000 # SI UNL
138 138 4 0.000000 0.001000 26.160999 30.000000 # SI UNL
139 139 4 0.000000 19.681000 20.083000 21.128000 # SI UNL
140 140 4 0.000000 12.497000 25.551001 0.022000 # SI UNL
141 141 4 0.000000 3.031000 20.599001 23.412001 # SI UNL
142 142 4 0.000000 -0.000000 5.836000 28.099001 # SI UNL
143 143 4 0.000000 1.992000 8.855000 10.543000 # SI UNL
144 144 4 0.000000 -0.001000 26.615000 17.712000 # SI UNL
145 145 4 0.000000 16.861000 3.678000 16.955999 # SI UNL
146 146 4 0.000000 17.281000 -0.000000 2.789000 # SI UNL
147 147 4 0.000000 22.480000 10.396000 4.692000 # SI UNL
148 148 4 0.000000 13.684000 0.014000 10.235000 # SI UNL
149 149 4 0.000000 29.256001 19.766001 24.827999 # SI UNL
150 150 4 0.000000 4.879000 20.323000 6.707000 # SI UNL
151 151 4 0.000000 9.070000 9.336000 14.356000 # SI UNL
152 152 4 0.000000 17.334999 25.511000 23.775999 # SI UNL
153 153 4 0.000000 16.245001 21.191999 25.219000 # SI UNL
154 154 4 0.000000 30.000000 23.292000 14.989000 # SI UNL
155 155 4 0.000000 0.000000 18.096001 26.563000 # SI UNL
156 156 4 0.000000 14.640000 30.000000 8.451000 # SI UNL
157 157 4 0.000000 29.663000 10.980000 0.000000 # SI UNL
158 158 4 0.000000 19.110001 3.698000 8.119000 # SI UNL
159 159 4 0.000000 16.132000 22.167000 29.993999 # SI UNL
160 160 4 0.000000 8.691000 20.691999 29.047001 # SI UNL
161 161 4 0.000000 25.035999 18.988001 22.726000 # SI UNL
162 162 4 0.000000 29.139000 12.325000 4.891000 # SI UNL
163 163 4 0.000000 10.690000 9.186000 24.393000 # SI UNL
164 164 4 0.000000 7.123000 14.414000 7.732000 # SI UNL
165 165 4 0.000000 3.833000 27.212000 13.627000 # SI UNL
166 166 4 0.000000 4.595000 16.937000 11.807000 # SI UNL
167 167 4 0.000000 21.093000 21.106001 16.176001 # SI UNL
168 168 4 0.000000 2.883000 7.655000 0.000000 # SI UNL
169 169 4 0.000000 30.000000 26.854000 3.522000 # SI UNL
170 170 4 0.000000 3.807000 0.044000 29.389000 # SI UNL
171 171 4 0.000000 10.006000 27.320000 6.776000 # SI UNL
172 172 4 0.000000 29.230000 12.991000 17.518999 # SI UNL
173 173 4 0.000000 26.674999 20.231001 24.334999 # SI UNL
174 174 4 0.000000 9.022000 25.653000 11.232000 # SI UNL
175 175 4 0.000000 19.348000 22.874001 0.776000 # SI UNL
176 176 4 0.000000 8.577000 -0.000000 6.646000 # SI UNL
177 177 4 0.000000 15.032000 8.360000 29.452999 # SI UNL
178 178 4 0.000000 13.008000 20.221001 21.938999 # SI UNL
179 179 4 0.000000 10.830000 6.617000 2.360000 # SI UNL
180 180 4 0.000000 4.636000 8.898000 17.198999 # SI UNL
181 181 4 0.000000 8.941000 6.620000 10.468000 # SI UNL
182 182 4 0.000000 5.366000 24.066999 0.109000 # SI UNL
183 183 4 0.000000 24.415001 13.520000 11.433000 # SI UNL
184 184 4 0.000000 1.614000 22.752001 21.451000 # SI UNL
185 185 4 0.000000 22.615999 1.238000 7.213000 # SI UNL
186 186 4 0.000000 7.153000 25.506001 7.665000 # SI UNL
187 187 4 0.000000 12.436000 17.621000 26.322001 # SI UNL
188 188 4 0.000000 4.405000 6.348000 19.149000 # SI UNL
189 189 4 0.000000 20.761999 26.709999 27.687000 # SI UNL
190 190 4 0.000000 22.003000 6.275000 24.237000 # SI UNL
191 191 4 0.000000 27.216000 21.056000 7.152000 # SI UNL
192 192 4 0.000000 3.313000 1.494000 6.348000 # SI UNL
193 193 4 0.000000 27.489000 30.000000 27.570999 # SI UNL
194 194 4 0.000000 11.591000 0.004000 17.861000 # SI UNL
195 195 4 0.000000 11.523000 27.907000 15.001000 # SI UNL
196 196 4 0.000000 24.391001 11.341000 3.204000 # SI UNL
197 197 4 0.000000 11.121000 24.813000 29.955999 # SI UNL
198 198 4 0.000000 1.859000 12.295000 30.000000 # SI UNL
199 199 4 0.000000 5.513000 6.213000 11.470000 # SI UNL
200 200 4 0.000000 2.794000 13.592000 9.225000 # SI UNL
201 201 4 0.000000 15.004000 5.404000 9.891000 # SI UNL
202 202 4 0.000000 4.907000 22.400000 21.200001 # SI UNL
203 203 4 0.000000 2.213000 1.192000 16.284000 # SI UNL
204 204 4 0.000000 16.839001 25.316000 30.000000 # SI UNL
205 205 4 0.000000 4.273000 24.761000 12.101000 # SI UNL
206 206 4 0.000000 20.537001 10.824000 26.483999 # SI UNL
207 207 4 0.000000 9.019000 4.104000 22.943001 # SI UNL
208 208 4 0.000000 21.191000 16.667000 9.710000 # SI UNL
209 209 4 0.000000 19.517000 30.000000 18.646000 # SI UNL
210 210 4 0.000000 22.895000 5.095000 22.007000 # SI UNL
211 211 4 0.000000 0.637000 -0.000000 10.512000 # SI UNL
212 212 4 0.000000 6.920000 9.393000 10.238000 # SI UNL
213 213 4 0.000000 15.976000 13.830000 3.365000 # SI UNL
214 214 4 0.000000 6.169000 5.700000 26.179001 # SI UNL
215 215 4 0.000000 12.114000 5.157000 12.716000 # SI UNL
216 216 4 0.000000 4.372000 13.956000 17.374001 # SI UNL
217 217 4 0.000000 12.594000 16.518000 9.625000 # SI UNL
218 218 4 0.000000 20.600000 25.606001 13.814000 # SI UNL
219 219 4 0.000000 0.948000 10.925000 9.022000 # SI UNL
220 220 4 0.000000 3.338000 23.155001 8.006000 # SI UNL
221 221 4 0.000000 6.775000 1.177000 16.173000 # SI UNL
222 222 4 0.000000 30.000000 6.526000 17.917999 # SI UNL
223 223 4 0.000000 2.638000 26.259001 4.698000 # SI UNL
224 224 4 0.000000 4.726000 30.000000 8.191000 # SI UNL
225 225 4 0.000000 24.417999 28.391001 12.223000 # SI UNL
226 226 4 0.000000 9.584000 2.081000 21.410999 # SI UNL
227 227 4 0.000000 13.898000 0.000000 19.089001 # SI UNL
228 228 4 0.000000 23.334999 25.830999 14.544000 # SI UNL
229 229 4 0.000000 5.762000 17.613001 14.149000 # SI UNL
230 230 4 0.000000 28.736000 20.211000 30.000000 # SI UNL
231 231 4 0.000000 3.698000 -0.000000 26.381001 # SI UNL
232 232 4 0.000000 8.014000 12.908000 26.643000 # SI UNL
233 233 4 0.000000 13.509000 20.181000 17.094000 # SI UNL
234 234 4 0.000000 23.396999 6.854000 11.351000 # SI UNL
235 235 4 0.000000 17.065001 5.604000 8.318000 # SI UNL
236 236 4 0.000000 14.924000 19.121000 1.201000 # SI UNL
237 237 4 0.000000 24.143999 2.365000 29.997999 # SI UNL
238 238 4 0.000000 24.895000 13.631000 24.677999 # SI UNL
239 239 4 0.000000 11.172000 19.532000 0.000000 # SI UNL
240 240 4 0.000000 25.561001 5.675000 5.049000 # SI UNL
241 241 4 0.000000 -0.000000 24.434999 22.601999 # SI UNL
242 242 4 0.000000 2.596000 14.094000 -0.000000 # SI UNL
243 243 4 0.000000 5.246000 28.257999 26.938000 # SI UNL
244 244 4 0.000000 25.985001 0.000000 22.844999 # SI UNL
245 245 4 0.000000 7.316000 12.026000 2.319000 # SI UNL
246 246 4 0.000000 10.970000 9.834000 6.203000 # SI UNL
247 247 4 0.000000 12.729000 11.147000 2.239000 # SI UNL
248 248 4 0.000000 22.198999 3.937000 15.355000 # SI UNL
249 249 4 0.000000 4.218000 20.066000 25.663000 # SI UNL
250 250 4 0.000000 0.000000 2.022000 28.365000 # SI UNL
251 251 4 0.000000 10.860000 9.908000 0.000000 # SI UNL
252 252 4 0.000000 16.598000 10.990000 7.271000 # SI UNL
253 253 4 0.000000 24.757999 30.000000 22.829000 # SI UNL
254 254 4 0.000000 4.501000 27.990999 23.190001 # SI UNL
255 255 4 0.000000 4.324000 12.781000 13.985000 # SI UNL
256 256 4 0.000000 27.898001 2.406000 11.423000 # SI UNL
257 257 4 0.000000 28.780001 4.698000 14.205000 # SI UNL
258 258 4 0.000000 25.292999 20.469999 20.003000 # SI UNL
259 259 4 0.000000 19.111000 5.967000 30.000000 # SI UNL
260 260 4 0.000000 16.636999 17.046000 7.142000 # SI UNL
261 261 4 0.000000 -0.000000 6.187000 25.523001 # SI UNL
262 262 4 0.000000 10.992000 26.316999 19.362000 # SI UNL
263 263 4 0.000000 19.031000 1.002000 21.041000 # SI UNL
264 264 4 0.000000 14.300000 23.044001 5.123000 # SI UNL
265 265 4 0.000000 13.341000 16.006001 15.893000 # SI UNL
266 266 4 0.000000 23.184000 11.117000 19.246000 # SI UNL
267 267 4 0.000000 11.379000 0.153000 2.090000 # SI UNL
268 268 4 0.000000 16.666000 19.827999 4.062000 # SI UNL
269 269 4 0.000000 27.146000 20.843000 18.218000 # SI UNL
270 270 4 0.000000 1.601000 3.686000 8.086000 # SI UNL
271 271 4 0.000000 15.033000 9.693000 2.194000 # SI UNL
272 272 4 0.000000 4.477000 3.554000 11.088000 # SI UNL
273 273 4 0.000000 14.060000 15.192000 28.195999 # SI UNL
274 274 4 0.000000 19.643000 8.753000 13.912000 # SI UNL
275 275 4 0.000000 15.949000 19.445999 30.000000 # SI UNL
276 276 4 0.000000 30.000000 25.368999 25.153999 # SI UNL
277 277 4 0.000000 8.469000 25.403999 20.739000 # SI UNL
278 278 4 0.000000 11.998000 19.452000 6.055000 # SI UNL
279 279 4 0.000000 7.079000 19.101999 5.916000 # SI UNL
280 280 4 0.000000 11.890000 18.403999 15.695000 # SI UNL
281 281 4 0.000000 30.000000 30.000000 0.009000 # SI UNL
282 282 4 0.000000 2.872000 23.340000 -0.000000 # SI UNL
283 283 4 0.000000 5.829000 4.693000 1.442000 # SI UNL
284 284 4 0.000000 2.053000 25.808001 -0.000000 # SI UNL
285 285 4 0.000000 27.677000 3.849000 6.405000 # SI UNL
286 286 4 0.000000 11.220000 15.026000 11.847000 # SI UNL
287 287 4 0.000000 23.818001 8.403000 8.260000 # SI UNL
288 288 4 0.000000 18.743999 26.964001 2.009000 # SI UNL
289 289 4 0.000000 20.670000 22.544001 11.417000 # SI UNL
290 290 4 0.000000 8.090000 22.569000 24.257999 # SI UNL
291 291 4 0.000000 11.557000 4.239000 8.740000 # SI UNL
292 292 4 0.000000 20.874001 8.929000 16.332001 # SI UNL
293 293 4 0.000000 -0.000000 17.841999 13.868000 # SI UNL
294 294 4 0.000000 27.400999 16.040001 19.224001 # SI UNL
295 295 4 0.000000 25.018999 18.933001 30.000000 # SI UNL
296 296 4 0.000000 10.771000 19.736000 3.270000 # SI UNL
297 297 4 0.000000 4.332000 28.020000 18.448000 # SI UNL
298 298 4 0.000000 24.006001 12.601000 0.961000 # SI UNL
299 299 4 0.000000 20.728001 7.717000 26.518000 # SI UNL
300 300 4 0.000000 5.206000 15.118000 5.159000 # SI UNL
301 301 4 0.000000 11.129000 2.128000 4.153000 # SI UNL
302 302 4 0.000000 3.430000 11.286000 20.437000 # SI UNL
303 303 4 0.000000 26.025000 15.727000 10.616000 # SI UNL
304 304 4 0.000000 0.008000 23.329000 25.737000 # SI UNL
305 305 4 0.000000 24.157000 2.400000 13.100000 # SI UNL
306 306 4 0.000000 7.348000 5.619000 4.531000 # SI UNL
307 307 4 0.000000 22.037001 10.817000 7.224000 # SI UNL
308 308 4 0.000000 3.323000 23.853001 27.535000 # SI UNL
309 309 4 0.000000 -0.000000 1.763000 12.313000 # SI UNL
310 310 4 0.000000 2.211000 4.183000 24.952000 # SI UNL
311 311 4 0.000000 5.059000 0.831000 19.370001 # SI UNL
312 312 4 0.000000 13.966000 25.858000 26.077999 # SI UNL
313 313 4 0.000000 30.000000 8.001000 20.211000 # SI UNL
314 314 4 0.000000 24.938000 2.466000 17.930000 # SI UNL
315 315 4 0.000000 17.537001 1.041000 16.368999 # SI UNL
316 316 4 0.000000 5.769000 18.780001 1.879000 # SI UNL
317 317 4 0.000000 13.448000 30.000000 0.329000 # SI UNL
318 318 4 0.000000 30.000000 28.285999 17.174000 # SI UNL
319 319 4 0.000000 25.093000 0.064000 8.304000 # SI UNL
320 320 4 0.000000 2.216000 4.973000 19.407000 # SI UNL
321 321 4 0.000000 28.299999 16.268999 12.148000 # SI UNL
322 322 4 0.000000 12.522000 23.612000 27.641001 # SI UNL
323 323 4 0.000000 12.472000 26.153999 28.186001 # SI UNL
324 324 4 0.000000 -0.001000 26.930000 14.402000 # SI UNL
325 325 4 0.000000 26.736000 22.049999 21.691999 # SI UNL
326 326 4 0.000000 4.131000 15.306000 14.932000 # SI UNL
327 327 4 0.000000 24.077999 8.401000 23.211000 # SI UNL
328 328 4 0.000000 9.437000 2.253000 9.491000 # SI UNL
329 329 4 0.000000 17.037001 13.069000 16.540001 # SI UNL
330 330 4 0.000000 26.004000 16.627001 0.959000 # SI UNL
331 331 4 0.000000 13.892000 24.965000 6.870000 # SI UNL
332 332 4 0.000000 0.442000 16.084999 4.548000 # SI UNL
333 333 4 0.000000 0.382000 13.204000 28.063000 # SI UNL
334 334 4 0.000000 0.000000 18.777000 16.294001 # SI UNL
335 335 4 0.000000 24.004000 18.322001 2.385000 # SI UNL
336 336 4 0.000000 24.444000 25.950001 20.112000 # SI UNL
337 337 4 0.000000 21.302999 2.424000 4.713000 # SI UNL
338 338 4 0.000000 17.778999 25.538000 14.540000 # SI UNL
339 339 4 0.000000 22.993000 9.540000 10.556000 # SI UNL
340 340 4 0.000000 15.579000 11.878000 18.333000 # SI UNL
341 341 4 0.000000 4.792000 11.404000 2.304000 # SI UNL
342 342 4 0.000000 1.627000 -0.000000 27.973000 # SI UNL
343 343 4 0.000000 5.883000 0.146000 6.657000 # SI UNL
344 344 4 0.000000 27.426001 6.170000 18.007000 # SI UNL
345 345 4 0.000000 3.643000 12.853000 22.500000 # SI UNL
346 346 4 0.000000 2.946000 22.520000 13.158000 # SI UNL
347 347 4 0.000000 12.788000 6.720000 21.959999 # SI UNL
348 348 4 0.000000 12.279000 4.955000 18.568001 # SI UNL
349 349 4 0.000000 0.878000 16.634001 20.361000 # SI UNL
350 350 4 0.000000 17.090000 29.990999 20.726999 # SI UNL
351 351 4 0.000000 17.933001 12.899000 0.352000 # SI UNL
352 352 4 0.000000 4.283000 5.713000 27.968000 # SI UNL
353 353 4 0.000000 1.385000 9.513000 19.634001 # SI UNL
354 354 4 0.000000 25.108000 23.438000 20.215000 # SI UNL
355 355 4 0.000000 7.370000 7.803000 18.405001 # SI UNL
356 356 4 0.000000 17.794001 22.514000 2.829000 # SI UNL
357 357 4 0.000000 0.143000 0.001000 18.452999 # SI UNL
358 358 4 0.000000 11.415000 14.297000 22.090000 # SI UNL
359 359 4 0.000000 26.299999 25.499001 4.623000 # SI UNL
360 360 4 0.000000 9.829000 11.446000 23.438999 # SI UNL
361 361 4 0.000000 0.001000 29.860001 18.177999 # SI UNL
362 362 4 0.000000 0.122000 29.973000 7.411000 # SI UNL
363 363 4 0.000000 21.294001 25.180000 21.278000 # SI UNL
364 364 4 0.000000 7.235000 15.987000 20.558001 # SI UNL
365 365 4 0.000000 17.396999 29.819000 7.267000 # SI UNL
366 366 4 0.000000 12.349000 18.235001 30.000000 # SI UNL
367 367 4 0.000000 12.822000 2.305000 1.872000 # SI UNL
368 368 4 0.000000 19.974001 17.059000 5.096000 # SI UNL
369 369 4 0.000000 22.445999 13.297000 13.483000 # SI UNL
370 370 4 0.000000 4.567000 23.153000 18.104000 # SI UNL
371 371 4 0.000000 27.195999 13.452000 19.072001 # SI UNL
372 372 4 0.000000 3.176000 0.000000 11.472000 # SI UNL
373 373 4 0.000000 2.171000 5.158000 0.135000 # SI UNL
374 374 4 0.000000 25.796000 29.952000 29.849001 # SI UNL
375 375 4 0.000000 8.675000 1.673000 14.455000 # SI UNL
376 376 4 0.000000 9.162000 15.339000 18.937000 # SI UNL
377 377 4 0.000000 4.995000 8.267000 4.253000 # SI UNL
378 378 4 0.000000 4.764000 16.719999 3.106000 # SI UNL
379 379 4 0.000000 0.001000 30.000000 0.000000 # SI UNL
380 380 4 0.000000 4.654000 22.749001 5.801000 # SI UNL
381 381 4 0.000000 26.798000 22.827999 24.333000 # SI UNL
382 382 4 0.000000 23.396000 15.075000 1.478000 # SI UNL
383 383 4 0.000000 9.362000 22.712000 7.037000 # SI UNL
384 384 4 0.000000 21.728001 11.796000 0.000000 # SI UNL
385 385 4 0.000000 13.016000 11.465000 18.188999 # SI UNL
386 386 4 0.000000 27.739000 4.350000 24.583000 # SI UNL
387 387 4 0.000000 10.143000 30.000000 28.599001 # SI UNL
388 388 4 0.000000 19.197001 25.412001 18.993000 # SI UNL
389 389 4 0.000000 1.834000 15.957000 9.721000 # SI UNL
390 390 4 0.000000 23.105000 -0.000000 24.371000 # SI UNL
391 391 4 0.000000 0.699000 30.000000 11.207000 # SI UNL
392 392 4 0.000000 3.402000 8.726000 27.923000 # SI UNL
393 393 4 0.000000 20.371000 1.726000 25.833000 # SI UNL
394 394 4 0.000000 15.394000 2.168000 15.423000 # SI UNL
395 395 4 0.000000 0.007000 8.208000 6.105000 # SI UNL
396 396 4 0.000000 17.892000 15.125000 4.915000 # SI UNL
397 397 4 0.000000 17.488001 2.382000 0.012000 # SI UNL
398 398 4 0.000000 15.389000 22.069000 17.455000 # SI UNL
399 399 4 0.000000 15.941000 15.806000 23.549999 # SI UNL
400 400 4 0.000000 5.546000 9.769000 21.471001 # SI UNL
401 401 4 0.000000 22.146000 24.952000 30.000000 # SI UNL
402 402 4 0.000000 9.593000 22.086000 9.573000 # SI UNL
403 403 4 0.000000 27.729000 13.124000 29.056999 # SI UNL
404 404 4 0.000000 22.518999 15.391000 6.221000 # SI UNL
405 405 4 0.000000 26.527000 23.559000 7.298000 # SI UNL
406 406 4 0.000000 29.999001 26.115000 18.643999 # SI UNL
407 407 4 0.000000 24.964001 3.248000 1.929000 # SI UNL
408 408 4 0.000000 9.647000 13.922000 8.683000 # SI UNL
409 409 4 0.000000 23.482000 11.561000 29.120001 # SI UNL
410 410 4 0.000000 22.225000 27.617001 6.150000 # SI UNL
411 411 4 0.000000 4.329000 10.863000 26.209999 # SI UNL
412 412 4 0.000000 22.570000 28.403000 2.006000 # SI UNL
413 413 4 0.000000 30.000000 19.072001 11.211000 # SI UNL
414 414 4 0.000000 18.829000 3.903000 3.972000 # SI UNL
415 415 4 0.000000 27.458000 -0.000000 3.110000 # SI UNL
416 416 4 0.000000 8.589000 18.186001 18.924000 # SI UNL
417 417 4 0.000000 12.877000 30.000000 14.261000 # SI UNL
418 418 4 0.000000 2.524000 8.055000 5.033000 # SI UNL
419 419 4 0.000000 19.177000 2.640000 29.895000 # SI UNL
420 420 4 0.000000 17.073000 0.015000 30.000000 # SI UNL
421 1 1 0.000000 22.917000 30.000000 14.748000 # CA UNL
422 2 1 0.000000 9.033000 3.740000 16.421000 # CA UNL
423 3 1 0.000000 13.038000 20.297001 14.329000 # CA UNL
424 4 1 0.000000 2.576000 29.875000 30.000999 # CA UNL
425 5 1 0.000000 22.773001 19.007000 16.482000 # CA UNL
426 6 1 0.000000 25.298000 4.958000 -0.001000 # CA UNL
427 7 1 0.000000 14.743000 6.118000 24.504000 # CA UNL
428 8 1 0.000000 0.000000 6.206000 3.958000 # CA UNL
429 9 1 0.000000 14.604000 29.999001 29.826000 # CA UNL
430 10 1 0.000000 16.631001 12.283000 24.134001 # CA UNL
431 11 1 0.000000 26.445999 7.099000 22.723000 # CA UNL
432 12 1 0.000000 23.808001 14.992000 9.016000 # CA UNL
433 13 1 0.000000 2.361000 8.671000 7.587000 # CA UNL
434 14 1 0.000000 27.792000 30.000000 12.932000 # CA UNL
435 15 1 0.000000 19.559000 17.764000 -0.000000 # CA UNL
436 16 1 0.000000 2.493000 10.658000 3.287000 # CA UNL
437 17 1 0.000000 22.754000 21.507999 26.614000 # CA UNL
438 18 1 0.000000 11.493000 5.516000 26.337000 # CA UNL
439 19 1 0.000000 -0.000000 2.598000 3.408000 # CA UNL
440 20 1 0.000000 7.036000 13.786000 0.204000 # CA UNL
441 21 1 0.000000 17.313999 27.794001 16.188999 # CA UNL
442 22 1 0.000000 8.430000 11.434000 9.539000 # CA UNL
443 23 1 0.000000 14.099000 21.658001 10.730000 # CA UNL
444 24 1 0.000000 10.443000 18.594000 7.953000 # CA UNL
445 25 1 0.000000 1.317000 3.581000 16.778999 # CA UNL
446 26 1 0.000000 8.522000 12.665000 30.000000 # CA UNL
447 27 1 0.000000 0.007000 24.006001 0.040000 # CA UNL
448 28 1 0.000000 27.465000 25.552000 18.785999 # CA UNL
449 29 1 0.000000 22.502001 0.000000 9.620000 # CA UNL
450 30 1 0.000000 22.945999 30.000000 4.190000 # CA UNL
451 31 1 0.000000 14.797000 10.572000 24.819000 # CA UNL
452 32 1 0.000000 14.796000 22.677000 23.059000 # CA UNL
453 33 1 0.000000 29.587999 30.000000 24.658001 # CA UNL
454 34 1 0.000000 4.728000 12.606000 0.000000 # CA UNL
455 35 1 0.000000 5.593000 28.882999 11.765000 # CA UNL
456 36 1 0.000000 2.279000 7.483000 18.172001 # CA UNL
457 37 1 0.000000 27.414000 17.857000 23.575001 # CA UNL
458 38 1 0.000000 10.503000 20.771000 14.665000 # CA UNL
459 39 1 0.000000 13.816000 15.185000 21.635000 # CA UNL
460 40 1 0.000000 26.610001 24.864000 14.773000 # CA UNL
461 41 1 0.000000 25.989000 19.818001 13.975000 # CA UNL
462 42 1 0.000000 19.791000 13.450000 25.197001 # CA UNL
463 43 1 0.000000 4.146000 2.414000 17.520000 # CA UNL
464 44 1 0.000000 22.872999 29.999001 6.965000 # CA UNL
465 45 1 0.000000 20.480000 22.355000 5.251000 # CA UNL
466 46 1 0.000000 28.402000 23.855000 22.545000 # CA UNL
467 47 1 0.000000 23.450001 3.520000 6.287000 # CA UNL
468 48 1 0.000000 23.155001 0.202000 12.128000 # CA UNL
469 49 1 0.000000 4.210000 13.824000 11.606000 # CA UNL
470 50 1 0.000000 9.916000 23.155001 20.714001 # CA UNL
471 51 1 0.000000 27.785999 29.990000 6.774000 # CA UNL
472 52 1 0.000000 8.877000 6.538000 6.688000 # CA UNL
473 53 1 0.000000 0.238000 2.872000 -0.000000 # CA UNL
474 54 1 0.000000 0.000000 5.854000 18.367001 # CA UNL
475 55 1 0.000000 29.981001 25.559999 10.655000 # CA UNL
476 56 1 0.000000 27.480000 27.086000 30.000000 # CA UNL
477 57 1 0.000000 13.567000 17.882000 7.409000 # CA UNL
478 58 1 0.000000 13.851000 29.461000 22.452999 # CA UNL
479 59 1 0.000000 12.077000 9.418000 19.489000 # CA UNL
480 60 1 0.000000 6.658000 15.569000 15.482000 # CA UNL
481 61 1 0.000000 12.070000 21.740999 4.824000 # CA UNL
482 62 1 0.000000 13.468000 9.527000 16.462000 # CA UNL
483 63 1 0.000000 17.267000 17.009001 29.916000 # CA UNL
484 64 1 0.000000 28.211000 14.238000 3.281000 # CA UNL
485 65 1 0.000000 12.283000 12.487000 27.521999 # CA UNL
486 66 1 0.000000 12.774000 23.107000 21.457001 # CA UNL
487 67 1 0.000000 10.435000 7.700000 27.268999 # CA UNL
488 68 1 0.000000 27.784000 9.327000 30.000000 # CA UNL
489 69 1 0.000000 10.778000 18.987000 23.834999 # CA UNL
490 70 1 0.000000 27.315001 9.422000 5.000000 # CA UNL
491 71 1 0.000000 27.656000 7.929000 27.797001 # CA UNL
492 72 1 0.000000 24.145000 19.750999 0.000000 # CA UNL
493 73 1 0.000000 4.717000 24.952999 25.378000 # CA UNL
494 74 1 0.000000 27.476999 18.969999 11.966000 # CA UNL
495 75 1 0.000000 22.028999 29.618999 18.091999 # CA UNL
496 76 1 0.000000 18.982000 25.327999 0.000000 # CA UNL
497 77 1 0.000000 29.802000 4.310000 11.846000 # CA UNL
498 78 1 0.000000 15.889000 20.318001 22.777000 # CA UNL
499 79 1 0.000000 13.129000 24.398001 24.066000 # CA UNL
500 80 1 0.000000 24.843000 1.923000 24.171000 # CA UNL
501 81 1 0.000000 27.472000 23.719000 16.941999 # CA UNL
502 82 1 0.000000 9.511000 0.000000 4.182000 # CA UNL
503 83 1 0.000000 15.503000 6.891000 2.382000 # CA UNL
504 84 1 0.000000 25.292999 25.684000 2.123000 # CA UNL
505 85 1 0.000000 6.036000 0.781000 24.969000 # CA UNL
506 86 1 0.000000 27.652000 -0.000000 27.545000 # CA UNL
507 87 1 0.000000 28.332001 24.902000 3.114000 # CA UNL
508 88 1 0.000000 18.291000 23.412001 20.386000 # CA UNL
509 89 1 0.000000 2.897000 8.676000 25.142000 # CA UNL
510 90 1 0.000000 8.384000 12.909000 18.108999 # CA UNL
511 91 1 0.000000 17.087000 19.031000 14.382000 # CA UNL
512 92 1 0.000000 11.360000 28.702000 12.031000 # CA UNL
513 93 1 0.000000 24.257000 15.040000 22.433001 # CA UNL
514 94 1 0.000000 8.825000 21.112000 12.709000 # CA UNL