LAMMPS data file. CGCMM style. atom_style full generated by VMD/TopoTools v1.2 on Fri May 02 23:47:23 +0330 2025
 1960 atoms
 0 bonds
 0 angles
 0 dihedrals
 0 impropers
 4 atom types
 0 bond types
 0 angle types
 0 dihedral types
 0 improper types
 0.000000 30.000000  xlo xhi
 0.000000 30.000000  ylo yhi
 0.000000 30.000000  zlo zhi

# Pair Coeffs
#
# 1  CA
# 2  O
# 3  P
# 4  SI

 Masses

 1 40.077999 # CA
 2 15.999400 # O
 3 30.973761 # P
 4 28.085501 # SI

 Atoms

1 1 4 0.000000 5.685000 19.301001 23.872000 # SI UNL
2 2 4 0.000000 0.061000 7.118000 28.388000 # SI UNL
3 3 4 0.000000 2.595000 9.690000 10.894000 # SI UNL
4 4 4 0.000000 0.005000 27.646999 17.287001 # SI UNL
5 5 4 0.000000 16.907000 6.257000 15.735000 # SI UNL
6 6 4 0.000000 6.376000 5.783000 23.237000 # SI UNL
7 7 4 0.000000 24.464001 10.391000 7.912000 # SI UNL
8 8 4 0.000000 13.628000 0.027000 9.341000 # SI UNL
9 9 4 0.000000 29.945999 19.650999 25.597000 # SI UNL
10 10 4 0.000000 3.938000 20.337000 4.633000 # SI UNL
11 11 4 0.000000 12.199000 9.595000 12.969000 # SI UNL
12 12 4 0.000000 17.108000 23.278999 22.066999 # SI UNL
13 13 4 0.000000 14.255000 19.068001 24.375999 # SI UNL
14 14 4 0.000000 29.913000 19.836000 18.462999 # SI UNL
15 15 4 0.000000 4.519000 21.833000 2.588000 # SI UNL
16 16 4 0.000000 14.072000 30.000000 8.989000 # SI UNL
17 17 4 0.000000 27.705999 14.099000 -0.000000 # SI UNL
18 18 4 0.000000 20.641001 5.232000 7.185000 # SI UNL
19 19 4 0.000000 14.989000 19.837000 29.996000 # SI UNL
20 20 4 0.000000 9.264000 20.587999 30.000000 # SI UNL
21 21 4 0.000000 24.562000 19.443001 21.683001 # SI UNL
22 22 4 0.000000 29.997000 12.462000 3.062000 # SI UNL
23 23 4 0.000000 9.814000 7.887000 27.052999 # SI UNL
24 24 4 0.000000 5.131000 16.591000 7.807000 # SI UNL
25 25 4 0.000000 2.587000 26.643000 14.017000 # SI UNL
26 26 4 0.000000 2.775000 17.021000 9.157000 # SI UNL
27 27 4 0.000000 20.409000 23.448999 15.416000 # SI UNL
28 28 4 0.000000 1.230000 8.721000 -0.000000 # SI UNL
29 29 4 0.000000 3.395000 7.711000 9.409000 # SI UNL
30 30 4 0.000000 4.235000 0.705000 27.823000 # SI UNL
31 31 4 0.000000 9.831000 30.000000 7.056000 # SI UNL
32 32 4 0.000000 30.000000 14.246000 17.082001 # SI UNL
33 33 4 0.000000 26.216999 18.781000 25.898001 # SI UNL
34 34 4 0.000000 8.541000 25.493999 14.465000 # SI UNL
35 35 4 0.000000 20.287001 24.889999 2.237000 # SI UNL
36 36 4 0.000000 9.261000 7.799000 11.882000 # SI UNL
37 37 4 0.000000 14.032000 9.042000 29.209999 # SI UNL
38 38 4 0.000000 15.228000 19.509001 22.006001 # SI UNL
39 39 4 0.000000 11.256000 9.516000 0.902000 # SI UNL
40 40 4 0.000000 3.560000 5.636000 17.546000 # SI UNL
41 41 4 0.000000 7.766000 9.858000 12.418000 # SI UNL
42 42 4 0.000000 6.247000 23.485001 0.016000 # SI UNL
43 43 4 0.000000 24.322001 12.950000 11.069000 # SI UNL
44 44 4 0.000000 3.537000 20.518999 23.058001 # SI UNL
45 45 4 0.000000 22.754000 0.376000 6.713000 # SI UNL
46 46 4 0.000000 5.493000 25.105000 5.909000 # SI UNL
47 47 4 0.000000 10.720000 14.716000 26.246000 # SI UNL
48 48 4 0.000000 26.080999 23.309999 23.636999 # SI UNL
49 49 4 0.000000 20.503000 24.950001 24.082001 # SI UNL
50 50 4 0.000000 22.264000 7.784000 24.580000 # SI UNL
51 51 4 0.000000 24.978001 18.150000 5.192000 # SI UNL
52 52 4 0.000000 4.350000 1.679000 3.727000 # SI UNL
53 53 4 0.000000 19.313999 20.997999 0.000000 # SI UNL
54 54 4 0.000000 10.947000 -0.000000 18.004000 # SI UNL
55 55 4 0.000000 13.394000 24.599001 13.283000 # SI UNL
56 56 4 0.000000 21.561001 12.783000 3.805000 # SI UNL
57 57 4 0.000000 11.834000 23.735001 30.000000 # SI UNL
58 58 4 0.000000 19.002001 27.139000 22.115000 # SI UNL
59 59 4 0.000000 5.197000 5.480000 11.709000 # SI UNL
60 60 4 0.000000 4.192000 14.917000 9.724000 # SI UNL
61 61 4 0.000000 30.000999 23.437000 21.122000 # SI UNL
62 62 4 0.000000 4.728000 22.101999 21.372000 # SI UNL
63 63 4 0.000000 1.753000 0.340000 16.179001 # SI UNL
64 64 4 0.000000 18.127001 24.393000 30.000000 # SI UNL
65 65 4 0.000000 2.143000 26.365000 8.315000 # SI UNL
66 66 4 0.000000 17.919001 9.891000 24.142000 # SI UNL
67 67 4 0.000000 9.503000 6.131000 22.777000 # SI UNL
68 68 4 0.000000 21.375000 17.944000 9.972000 # SI UNL
69 69 4 0.000000 26.257000 26.506001 -0.000000 # SI UNL
70 70 4 0.000000 21.679001 5.169000 23.311001 # SI UNL
71 71 4 0.000000 1.118000 -0.002000 9.041000 # SI UNL
72 72 4 0.000000 7.944000 11.514000 8.604000 # SI UNL
73 73 4 0.000000 15.271000 13.115000 4.152000 # SI UNL
74 74 4 0.000000 7.326000 8.410000 27.596001 # SI UNL
75 75 4 0.000000 10.360000 4.812000 12.655000 # SI UNL
76 76 4 0.000000 4.715000 12.842000 17.150999 # SI UNL
77 77 4 0.000000 14.115000 19.150000 11.247000 # SI UNL
78 78 4 0.000000 21.316999 25.768000 13.318000 # SI UNL
79 79 4 0.000000 15.275000 6.316000 17.818001 # SI UNL
80 80 4 0.000000 3.224000 24.183001 7.342000 # SI UNL
81 81 4 0.000000 13.741000 12.538000 15.625000 # SI UNL
82 82 4 0.000000 28.907000 4.991000 19.181999 # SI UNL
83 83 4 0.000000 -0.000000 27.414000 7.282000 # SI UNL
84 84 4 0.000000 2.361000 29.995001 5.493000 # SI UNL
85 85 4 0.000000 24.108999 29.996000 11.483000 # SI UNL
86 86 4 0.000000 7.617000 0.000000 22.681000 # SI UNL
87 87 4 0.000000 16.893000 0.000000 18.615000 # SI UNL
88 88 4 0.000000 24.145000 26.725000 15.030000 # SI UNL
89 89 4 0.000000 3.976000 18.702999 14.615000 # SI UNL
90 90 4 0.000000 27.462999 21.427999 27.964001 # SI UNL
91 91 4 0.000000 3.646000 2.184000 23.115999 # SI UNL
92 92 4 0.000000 6.530000 13.276000 23.554001 # SI UNL
93 93 4 0.000000 13.130000 20.881001 16.563999 # SI UNL
94 94 4 0.000000 22.629000 8.981000 10.832000 # SI UNL
95 95 4 0.000000 17.774000 6.262000 7.127000 # SI UNL
96 96 4 0.000000 14.910000 19.635000 1.516000 # SI UNL
97 97 4 0.000000 25.709999 4.277000 30.000000 # SI UNL
98 98 4 0.000000 25.280001 16.690001 27.421000 # SI UNL
99 99 4 0.000000 11.217000 22.483000 2.398000 # SI UNL
100 100 4 0.000000 27.232000 4.315000 3.071000 # SI UNL
101 101 4 0.000000 0.167000 25.646000 25.794001 # SI UNL
102 102 4 0.000000 1.373000 14.736000 -0.000000 # SI UNL
103 103 4 0.000000 18.752001 5.762000 11.735000 # SI UNL
104 104 4 0.000000 28.353001 1.345000 25.906000 # SI UNL
105 105 4 0.000000 8.307000 9.367000 5.117000 # SI UNL
106 106 4 0.000000 11.544000 11.427000 5.958000 # SI UNL
107 107 4 0.000000 12.009000 12.417000 1.643000 # SI UNL
108 108 4 0.000000 22.783001 4.357000 14.126000 # SI UNL
109 109 4 0.000000 3.753000 20.857000 25.625999 # SI UNL
110 110 4 0.000000 1.077000 2.244000 26.858999 # SI UNL
111 111 4 0.000000 8.838000 9.827000 -0.000000 # SI UNL
112 112 4 0.000000 17.643999 11.211000 8.450000 # SI UNL
113 113 4 0.000000 23.653000 29.239000 23.497999 # SI UNL
114 114 4 0.000000 3.820000 27.877001 24.395000 # SI UNL
115 115 4 0.000000 8.129000 9.523000 15.682000 # SI UNL
116 116 4 0.000000 27.540001 2.424000 10.254000 # SI UNL
117 117 4 0.000000 28.499001 7.465000 14.087000 # SI UNL
118 118 4 0.000000 22.275999 19.278999 19.233999 # SI UNL
119 119 4 0.000000 18.430000 7.061000 28.971001 # SI UNL
120 120 4 0.000000 16.233999 15.809000 8.067000 # SI UNL
121 121 4 0.000000 0.020000 5.229000 24.948000 # SI UNL
122 122 4 0.000000 10.226000 27.261000 18.452999 # SI UNL
123 123 4 0.000000 18.718000 0.020000 21.973000 # SI UNL
124 124 4 0.000000 16.052000 26.847000 6.318000 # SI UNL
125 125 4 0.000000 14.196000 16.944000 15.806000 # SI UNL
126 126 4 0.000000 24.542000 11.012000 18.422001 # SI UNL
127 127 4 0.000000 10.660000 -0.000000 2.314000 # SI UNL
128 128 4 0.000000 17.681000 20.691999 2.223000 # SI UNL
129 129 4 0.000000 25.497999 22.438000 18.691999 # SI UNL
130 130 4 0.000000 2.229000 4.464000 6.687000 # SI UNL
131 131 4 0.000000 14.023000 12.333000 0.002000 # SI UNL
132 132 4 0.000000 6.023000 4.407000 13.929000 # SI UNL
133 133 4 0.000000 13.456000 14.477000 27.413000 # SI UNL
134 134 4 0.000000 20.062000 12.445000 13.936000 # SI UNL
135 135 4 0.000000 29.951000 14.946000 25.639999 # SI UNL
136 136 4 0.000000 30.000000 26.299000 25.056000 # SI UNL
137 137 4 0.000000 9.194000 24.910999 19.969999 # SI UNL
138 138 4 0.000000 12.634000 18.971001 5.449000 # SI UNL
139 139 4 0.000000 7.803000 20.364000 5.523000 # SI UNL
140 140 4 0.000000 11.899000 18.737000 15.554000 # SI UNL
141 141 4 0.000000 29.249001 30.000000 -0.000000 # SI UNL
142 142 4 0.000000 2.137000 21.065001 1.887000 # SI UNL
143 143 4 0.000000 6.328000 5.456000 1.381000 # SI UNL
144 144 4 0.000000 1.709000 25.444000 -0.000000 # SI UNL
145 145 4 0.000000 28.646000 3.796000 5.618000 # SI UNL
146 146 4 0.000000 12.314000 14.915000 12.121000 # SI UNL
147 147 4 0.000000 25.040001 6.525000 6.866000 # SI UNL
148 148 4 0.000000 18.823999 27.993000 6.295000 # SI UNL
149 149 4 0.000000 21.156000 22.461000 12.455000 # SI UNL
150 150 4 0.000000 10.368000 20.938999 24.254999 # SI UNL
151 151 4 0.000000 11.871000 1.948000 9.376000 # SI UNL
152 152 4 0.000000 19.680000 8.836000 17.075001 # SI UNL
153 153 4 0.000000 0.692000 19.784000 13.151000 # SI UNL
154 154 4 0.000000 26.712999 17.756001 22.959000 # SI UNL
155 155 4 0.000000 6.958000 11.592000 16.743000 # SI UNL
156 156 4 0.000000 9.051000 21.868999 3.699000 # SI UNL
157 157 4 0.000000 7.019000 29.968000 18.736000 # SI UNL
158 158 4 0.000000 26.181000 11.993000 -0.000000 # SI UNL
159 159 4 0.000000 20.898001 7.594000 27.496000 # SI UNL
160 160 4 0.000000 6.881000 13.789000 4.832000 # SI UNL
161 161 4 0.000000 11.974000 2.117000 4.833000 # SI UNL
162 162 4 0.000000 4.258000 12.201000 21.333000 # SI UNL
163 163 4 0.000000 28.610001 17.625999 11.510000 # SI UNL
164 164 4 0.000000 -0.001000 24.990999 28.304001 # SI UNL
165 165 4 0.000000 26.840000 2.541000 12.867000 # SI UNL
166 166 4 0.000000 6.214000 5.761000 4.685000 # SI UNL
167 167 4 0.000000 19.797001 8.892000 8.070000 # SI UNL
168 168 4 0.000000 1.977000 26.091999 23.962000 # SI UNL
169 169 4 0.000000 1.010000 2.541000 11.868000 # SI UNL
170 170 4 0.000000 2.352000 5.435000 28.083000 # SI UNL
171 171 4 0.000000 4.439000 2.207000 19.777000 # SI UNL
172 172 4 0.000000 14.655000 27.392000 28.466000 # SI UNL
173 173 4 0.000000 27.933001 8.741000 21.632000 # SI UNL
174 174 4 0.000000 25.680000 2.627000 18.157000 # SI UNL
175 175 4 0.000000 17.502001 1.799000 16.718000 # SI UNL
176 176 4 0.000000 4.128000 21.944000 0.020000 # SI UNL
177 177 4 0.000000 21.789000 7.446000 8.908000 # SI UNL
178 178 4 0.000000 30.000000 27.924999 17.666000 # SI UNL
179 179 4 0.000000 27.525999 -0.000000 7.890000 # SI UNL
180 180 4 0.000000 2.473000 6.902000 20.625000 # SI UNL
181 181 4 0.000000 30.000000 15.517000 12.127000 # SI UNL
182 182 4 0.000000 12.222000 27.473000 27.274000 # SI UNL
183 183 4 0.000000 19.233000 30.002001 18.490999 # SI UNL
184 184 4 0.000000 -0.000000 27.306999 14.710000 # SI UNL
185 185 4 0.000000 27.850000 22.830000 19.728001 # SI UNL
186 186 4 0.000000 4.941000 16.052000 11.940000 # SI UNL
187 187 4 0.000000 29.747000 16.639999 9.389000 # SI UNL
188 188 4 0.000000 7.079000 2.583000 8.124000 # SI UNL
189 189 4 0.000000 18.169001 13.801000 15.521000 # SI UNL
190 190 4 0.000000 26.292000 15.552000 1.628000 # SI UNL
191 191 4 0.000000 10.029000 27.000999 4.965000 # SI UNL
192 192 4 0.000000 -0.000000 15.798000 3.923000 # SI UNL
193 193 4 0.000000 0.417000 14.126000 29.899000 # SI UNL
194 194 4 0.000000 1.260000 21.000999 17.737000 # SI UNL
195 195 4 0.000000 20.815001 18.403999 -0.000000 # SI UNL
196 196 4 0.000000 25.261999 26.878000 20.437000 # SI UNL
197 197 4 0.000000 21.238001 -0.002000 4.634000 # SI UNL
198 198 4 0.000000 17.360001 26.215000 13.441000 # SI UNL
199 199 4 0.000000 22.162001 11.521000 11.298000 # SI UNL
200 200 4 0.000000 15.038000 11.900000 18.195999 # SI UNL
201 201 4 0.000000 4.173000 10.574000 -0.000000 # SI UNL
202 202 4 0.000000 9.915000 14.246000 18.635000 # SI UNL
203 203 4 0.000000 4.898000 1.062000 6.193000 # SI UNL
204 204 4 0.000000 27.684999 7.508000 18.891001 # SI UNL
205 205 4 0.000000 30.000999 26.365999 12.472000 # SI UNL
206 206 4 0.000000 3.107000 21.003000 13.768000 # SI UNL
207 207 4 0.000000 12.658000 5.213000 20.841000 # SI UNL
208 208 4 0.000000 12.002000 2.310000 22.570000 # SI UNL
209 209 4 0.000000 1.528000 15.847000 19.296000 # SI UNL
210 210 4 0.000000 13.630000 28.490999 23.379999 # SI UNL
211 211 4 0.000000 19.322001 13.635000 2.067000 # SI UNL
212 212 4 0.000000 3.094000 7.017000 30.007999 # SI UNL
213 213 4 0.000000 0.007000 11.112000 20.297001 # SI UNL
214 214 4 0.000000 21.653999 23.287001 20.533001 # SI UNL
215 215 4 0.000000 7.595000 7.487000 19.771999 # SI UNL
216 216 4 0.000000 14.090000 22.003000 0.794000 # SI UNL
217 217 4 0.000000 -0.001000 -0.004000 18.066999 # SI UNL
218 218 4 0.000000 9.222000 17.638000 27.750999 # SI UNL
219 219 4 0.000000 27.299999 24.518999 4.855000 # SI UNL
220 220 4 0.000000 10.356000 11.594000 24.021999 # SI UNL
221 221 4 0.000000 1.828000 30.000000 18.040001 # SI UNL
222 222 4 0.000000 0.000000 30.000000 7.005000 # SI UNL
223 223 4 0.000000 25.475000 21.231001 25.441999 # SI UNL
224 224 4 0.000000 8.589000 18.540001 20.388000 # SI UNL
225 225 4 0.000000 14.596000 30.000000 6.442000 # SI UNL
226 226 4 0.000000 30.000000 16.115999 21.961000 # SI UNL
227 227 4 0.000000 15.030000 2.782000 1.692000 # SI UNL
228 228 4 0.000000 20.371000 17.483000 5.118000 # SI UNL
229 229 4 0.000000 21.527000 13.891000 12.252000 # SI UNL
230 230 4 0.000000 6.196000 22.521999 19.268000 # SI UNL
231 231 4 0.000000 30.000000 12.503000 23.003000 # SI UNL
232 232 4 0.000000 2.795000 1.585000 10.237000 # SI UNL
233 233 4 0.000000 19.032000 1.374000 4.672000 # SI UNL
234 234 4 0.000000 27.589001 29.205000 29.440001 # SI UNL
235 235 4 0.000000 8.151000 0.042000 15.150000 # SI UNL
236 236 4 0.000000 8.512000 14.966000 20.702000 # SI UNL
237 237 4 0.000000 21.294001 17.827999 29.121000 # SI UNL
238 238 4 0.000000 3.815000 16.853001 2.539000 # SI UNL
239 239 4 0.000000 -0.000000 30.000000 -0.000000 # SI UNL
240 240 4 0.000000 3.653000 24.215000 4.303000 # SI UNL
241 241 4 0.000000 25.569000 22.242001 21.320999 # SI UNL
242 242 4 0.000000 10.874000 8.270000 22.226000 # SI UNL
243 243 4 0.000000 7.912000 24.969000 3.941000 # SI UNL
244 244 4 0.000000 23.152000 11.788000 -0.000000 # SI UNL
245 245 4 0.000000 16.285999 12.005000 15.624000 # SI UNL
246 246 4 0.000000 30.000000 5.279000 24.245001 # SI UNL
247 247 4 0.000000 10.761000 30.000999 30.000999 # SI UNL
248 248 4 0.000000 20.573000 26.125000 18.410999 # SI UNL
249 249 4 0.000000 1.869000 14.621000 8.574000 # SI UNL
250 250 4 0.000000 21.546000 -0.000000 23.454000 # SI UNL
251 251 4 0.000000 19.033001 6.758000 9.347000 # SI UNL
252 252 4 0.000000 4.963000 10.405000 27.768000 # SI UNL
253 253 4 0.000000 20.327999 1.540000 26.608999 # SI UNL
254 254 4 0.000000 13.561000 3.924000 16.072001 # SI UNL
255 255 4 0.000000 13.145000 11.756000 29.253000 # SI UNL
256 256 4 0.000000 17.434000 14.951000 3.276000 # SI UNL
257 257 4 0.000000 17.287001 4.302000 0.405000 # SI UNL
258 258 4 0.000000 15.714000 22.167999 17.011999 # SI UNL
259 259 4 0.000000 15.545000 16.368000 24.638000 # SI UNL
260 260 4 0.000000 7.446000 4.962000 20.372999 # SI UNL
261 261 4 0.000000 20.902000 28.356001 30.000999 # SI UNL
262 262 4 0.000000 8.796000 23.146999 10.202000 # SI UNL
263 263 4 0.000000 27.223000 10.945000 27.899000 # SI UNL
264 264 4 0.000000 22.841000 16.683001 4.980000 # SI UNL
265 265 4 0.000000 26.090000 26.775999 6.823000 # SI UNL
266 266 4 0.000000 27.802999 29.941000 20.677999 # SI UNL
267 267 4 0.000000 30.000000 11.548000 13.570000 # SI UNL
268 268 4 0.000000 11.294000 15.460000 9.069000 # SI UNL
269 269 4 0.000000 25.327000 13.640000 29.018000 # SI UNL
270 270 4 0.000000 20.431000 25.856001 5.635000 # SI UNL
271 271 4 0.000000 4.609000 11.019000 25.266001 # SI UNL
272 272 4 0.000000 22.753000 28.655001 2.207000 # SI UNL
273 273 4 0.000000 30.000000 19.792999 11.148000 # SI UNL
274 274 4 0.000000 21.205000 3.596000 1.759000 # SI UNL
275 275 4 0.000000 26.851999 2.215000 1.363000 # SI UNL
276 276 4 0.000000 7.537000 20.349001 18.777000 # SI UNL
277 277 4 0.000000 12.825000 30.000000 14.538000 # SI UNL
278 278 4 0.000000 2.102000 8.034000 3.743000 # SI UNL
279 279 4 0.000000 22.059000 3.594000 30.000999 # SI UNL
280 280 4 0.000000 18.035999 0.446000 30.000000 # SI UNL
281 281 4 0.000000 25.600000 30.000000 16.340000 # SI UNL
282 282 4 0.000000 -0.000000 22.224001 12.579000 # SI UNL
283 283 4 0.000000 15.329000 19.191000 16.504000 # SI UNL
284 284 4 0.000000 3.268000 30.000000 30.000999 # SI UNL
285 285 4 0.000000 23.745001 17.768999 17.702999 # SI UNL
286 286 4 0.000000 25.450001 4.446000 1.183000 # SI UNL
287 287 4 0.000000 13.328000 8.192000 23.080999 # SI UNL
288 288 4 0.000000 0.000000 6.662000 4.420000 # SI UNL
289 289 4 0.000000 14.934000 30.000000 28.841999 # SI UNL
290 290 4 0.000000 25.496000 16.214001 30.000000 # SI UNL
291 291 4 0.000000 26.229000 5.536000 20.198999 # SI UNL
292 292 4 0.000000 22.739000 14.814000 9.951000 # SI UNL
293 293 4 0.000000 4.031000 9.970000 6.332000 # SI UNL
294 294 4 0.000000 27.149000 30.000000 10.559000 # SI UNL
295 295 4 0.000000 19.431000 16.202999 -0.000000 # SI UNL
296 296 4 0.000000 2.117000 11.515000 2.520000 # SI UNL
297 297 4 0.000000 19.650000 23.035999 27.889999 # SI UNL
298 298 4 0.000000 10.321000 5.608000 28.816000 # SI UNL
299 299 4 0.000000 -0.003000 2.493000 3.375000 # SI UNL
300 300 4 0.000000 6.200000 15.366000 -0.000000 # SI UNL
301 301 4 0.000000 17.155001 27.440001 15.759000 # SI UNL
302 302 4 0.000000 10.346000 12.662000 8.215000 # SI UNL
303 303 4 0.000000 14.915000 21.622000 11.924000 # SI UNL
304 304 4 0.000000 8.756000 18.888000 12.227000 # SI UNL
305 305 4 0.000000 2.314000 3.362000 17.358000 # SI UNL
306 306 4 0.000000 24.016001 16.638000 21.017000 # SI UNL
307 307 4 0.000000 -0.000000 24.142000 1.464000 # SI UNL
308 308 4 0.000000 28.573000 25.813999 17.150000 # SI UNL
309 309 4 0.000000 20.860001 0.103000 11.291000 # SI UNL
310 310 4 0.000000 20.712000 27.308001 3.091000 # SI UNL
311 311 4 0.000000 15.570000 11.202000 23.485001 # SI UNL
312 312 4 0.000000 15.158000 23.267000 23.787001 # SI UNL
313 313 4 0.000000 29.997999 29.993999 24.841000 # SI UNL
314 314 4 0.000000 4.174000 13.736000 -0.000000 # SI UNL
315 315 4 0.000000 6.970000 30.000000 10.786000 # SI UNL
316 316 4 0.000000 3.015000 8.046000 18.354000 # SI UNL
317 317 4 0.000000 28.444000 14.063000 21.615000 # SI UNL
318 318 4 0.000000 7.704000 20.909000 14.062000 # SI UNL
319 319 4 0.000000 15.277000 16.570999 21.066999 # SI UNL
320 320 4 0.000000 28.580000 25.723000 14.552000 # SI UNL
321 321 4 0.000000 27.615000 19.986000 14.892000 # SI UNL
322 322 4 0.000000 18.660999 14.036000 26.038000 # SI UNL
323 323 4 0.000000 6.137000 1.746000 14.977000 # SI UNL
324 324 4 0.000000 22.889999 28.180000 9.668000 # SI UNL
325 325 4 0.000000 15.845000 19.974001 3.918000 # SI UNL
326 326 4 0.000000 27.794001 25.990000 23.716000 # SI UNL
327 327 4 0.000000 24.563999 2.103000 6.005000 # SI UNL
328 328 4 0.000000 22.062000 2.079000 12.583000 # SI UNL
329 329 4 0.000000 3.430000 12.610000 10.650000 # SI UNL
330 330 4 0.000000 8.619000 22.903999 18.406000 # SI UNL
331 331 4 0.000000 26.771000 29.073999 7.831000 # SI UNL
332 332 4 0.000000 8.838000 5.369000 7.875000 # SI UNL
333 333 4 0.000000 1.147000 4.098000 -0.001000 # SI UNL
334 334 4 0.000000 -0.001000 6.302000 20.096001 # SI UNL
335 335 4 0.000000 25.931000 24.688000 10.715000 # SI UNL
336 336 4 0.000000 27.422001 27.159000 27.396999 # SI UNL
337 337 4 0.000000 13.411000 21.400999 7.327000 # SI UNL
338 338 4 0.000000 13.778000 27.281000 21.083000 # SI UNL
339 339 4 0.000000 10.407000 10.701000 16.535999 # SI UNL
340 340 4 0.000000 5.929000 17.169001 15.384000 # SI UNL
341 341 4 0.000000 10.444000 24.382999 3.996000 # SI UNL
342 342 4 0.000000 14.570000 7.588000 15.663000 # SI UNL
343 343 4 0.000000 19.480000 16.288000 28.059000 # SI UNL
344 344 4 0.000000 26.718000 13.450000 3.099000 # SI UNL
345 345 4 0.000000 13.739000 10.887000 26.753000 # SI UNL
346 346 4 0.000000 12.643000 23.818001 23.427000 # SI UNL
347 347 4 0.000000 3.830000 7.676000 11.979000 # SI UNL
348 348 4 0.000000 30.000000 9.494000 30.000000 # SI UNL
349 349 4 0.000000 11.847000 21.101000 22.035999 # SI UNL
350 350 4 0.000000 27.910000 8.485000 2.964000 # SI UNL
351 351 4 0.000000 27.746000 8.653000 29.014000 # SI UNL
352 352 4 0.000000 25.708000 20.252001 3.529000 # SI UNL
353 353 4 0.000000 6.686000 23.750999 25.870001 # SI UNL
354 354 4 0.000000 25.542000 19.594999 10.830000 # SI UNL
355 355 4 0.000000 21.422001 28.620001 18.733000 # SI UNL
356 356 4 0.000000 18.646000 25.500000 -0.000000 # SI UNL
357 357 4 0.000000 1.084000 10.153000 23.680000 # SI UNL
358 358 4 0.000000 17.421000 20.778999 21.424000 # SI UNL
359 359 4 0.000000 12.209000 24.461000 25.908001 # SI UNL
360 360 4 0.000000 24.202999 2.695000 25.965000 # SI UNL
361 361 4 0.000000 28.476999 24.655001 11.242000 # SI UNL
362 362 4 0.000000 8.190000 4.723000 3.324000 # SI UNL
363 363 4 0.000000 15.251000 6.239000 1.122000 # SI UNL
364 364 4 0.000000 23.997000 25.221001 -0.000000 # SI UNL
365 365 4 0.000000 8.242000 2.080000 27.430000 # SI UNL
366 366 4 0.000000 30.000000 -0.001000 27.400000 # SI UNL
367 367 4 0.000000 28.532000 25.302000 1.039000 # SI UNL
368 368 4 0.000000 18.964001 29.920000 25.885000 # SI UNL
369 369 4 0.000000 2.719000 9.247000 25.487000 # SI UNL
370 370 4 0.000000 10.955000 10.872000 19.510000 # SI UNL
371 371 4 0.000000 18.891001 17.676001 11.484000 # SI UNL
372 372 4 0.000000 9.654000 30.000000 10.020000 # SI UNL
373 373 4 0.000000 21.777000 15.689000 22.107000 # SI UNL
374 374 4 0.000000 7.638000 23.379000 13.253000 # SI UNL
375 375 4 0.000000 30.007999 27.423000 27.400000 # SI UNL
376 376 4 0.000000 17.930000 7.241000 20.386000 # SI UNL
377 377 4 0.000000 11.033000 23.761999 11.786000 # SI UNL
378 378 4 0.000000 11.895000 26.334999 8.083000 # SI UNL
379 379 4 0.000000 10.896000 17.882000 18.270000 # SI UNL
380 380 4 0.000000 27.795000 11.376000 20.455000 # SI UNL
381 381 4 0.000000 30.000000 12.063000 7.901000 # SI UNL
382 382 4 0.000000 22.356001 14.127000 5.884000 # SI UNL
383 383 4 0.000000 20.580000 30.000999 23.292000 # SI UNL
384 384 4 0.000000 1.147000 9.119000 16.351999 # SI UNL
385 385 4 0.000000 9.480000 1.763000 22.253000 # SI UNL
386 386 4 0.000000 16.917999 20.987000 28.040001 # SI UNL
387 387 4 0.000000 6.980000 6.912000 25.500000 # SI UNL
388 388 4 0.000000 2.834000 21.791000 29.280001 # SI UNL
389 389 4 0.000000 29.878000 2.594000 19.545000 # SI UNL
390 390 4 0.000000 22.120001 1.915000 -0.001000 # SI UNL
391 391 4 0.000000 5.369000 27.450001 4.711000 # SI UNL
392 392 4 0.000000 8.294000 18.629000 3.539000 # SI UNL
393 393 4 0.000000 25.132999 18.981001 15.014000 # SI UNL
394 394 4 0.000000 11.193000 12.305000 21.666000 # SI UNL
395 395 4 0.000000 13.407000 8.143000 2.053000 # SI UNL
396 396 4 0.000000 -0.001000 2.534000 29.421000 # SI UNL
397 397 4 0.000000 14.482000 2.381000 4.201000 # SI UNL
398 398 4 0.000000 10.338000 28.565001 2.462000 # SI UNL
399 399 4 0.000000 13.762000 10.334000 21.579000 # SI UNL
400 400 4 0.000000 17.716000 5.758000 26.780001 # SI UNL
401 401 4 0.000000 1.359000 13.460000 14.083000 # SI UNL
402 402 4 0.000000 10.051000 27.691000 -0.000000 # SI UNL
403 403 4 0.000000 6.315000 26.174000 13.146000 # SI UNL
404 404 4 0.000000 22.437000 1.598000 19.143000 # SI UNL
405 405 4 0.000000 10.471000 14.110000 5.331000 # SI UNL
406 406 4 0.000000 28.030001 20.587999 0.159000 # SI UNL
407 407 4 0.000000 27.830999 1.760000 29.982000 # SI UNL
408 408 4 0.000000 21.200001 25.813000 20.948999 # SI UNL
409 409 4 0.000000 16.143000 17.311001 11.072000 # SI UNL
410 410 4 0.000000 0.922000 6.163000 22.577000 # SI UNL
411 411 4 0.000000 13.507000 24.438000 0.000000 # SI UNL
412 412 4 0.000000 19.426001 17.354000 19.020000 # SI UNL
413 413 4 0.000000 0.008000 27.405001 0.159000 # SI UNL
414 414 4 0.000000 7.491000 18.131001 7.411000 # SI UNL
415 415 4 0.000000 8.870000 2.606000 14.077000 # SI UNL
416 416 4 0.000000 5.270000 2.355000 30.007999 # SI UNL
417 417 4 0.000000 24.256001 7.091000 2.231000 # SI UNL
418 418 4 0.000000 30.000000 21.808001 7.309000 # SI UNL
419 419 4 0.000000 27.476999 9.940000 17.996000 # SI UNL
420 420 4 0.000000 1.048000 22.729000 27.569000 # SI UNL
421 1 1 0.000000 27.587999 14.918000 29.162001 # CA UNL
422 2 1 0.000000 4.914000 22.311001 17.016001 # CA UNL
423 3 1 0.000000 8.594000 1.625000 4.549000 # CA UNL
424 4 1 0.000000 1.683000 -0.002000 28.020000 # CA UNL
425 5 1 0.000000 0.001000 21.825001 22.292000 # CA UNL
426 6 1 0.000000 30.000000 15.131000 7.287000 # CA UNL
427 7 1 0.000000 6.256000 14.573000 28.355000 # CA UNL
428 8 1 0.000000 10.648000 5.166000 4.506000 # CA UNL
429 9 1 0.000000 27.426001 12.462000 30.000000 # CA UNL
430 10 1 0.000000 28.937000 17.242001 6.205000 # CA UNL
431 11 1 0.000000 0.028000 18.308001 4.602000 # CA UNL
432 12 1 0.000000 2.561000 4.777000 25.576000 # CA UNL
433 13 1 0.000000 14.187000 26.112000 26.252001 # CA UNL
434 14 1 0.000000 24.628000 23.195000 12.398000 # CA UNL
435 15 1 0.000000 27.027000 6.586000 11.825000 # CA UNL
436 16 1 0.000000 1.884000 17.521999 13.621000 # CA UNL
437 17 1 0.000000 5.453000 9.674000 10.339000 # CA UNL
438 18 1 0.000000 1.773000 10.581000 5.197000 # CA UNL
439 19 1 0.000000 20.802000 21.059999 7.365000 # CA UNL
440 20 1 0.000000 25.794001 30.000000 24.767000 # CA UNL
441 21 1 0.000000 16.746000 26.476000 20.549000 # CA UNL
442 22 1 0.000000 5.871000 24.054001 2.614000 # CA UNL
443 23 1 0.000000 17.504000 4.332000 17.407000 # CA UNL
444 24 1 0.000000 18.274000 18.767000 4.081000 # CA UNL
445 25 1 0.000000 11.068000 8.577000 5.318000 # CA UNL
446 26 1 0.000000 22.419001 -0.000000 26.483999 # CA UNL
447 27 1 0.000000 10.121000 3.349000 24.211000 # CA UNL
448 28 1 0.000000 9.935000 19.587000 7.142000 # CA UNL
449 29 1 0.000000 22.740000 24.649000 11.299000 # CA UNL
450 30 1 0.000000 13.884000 5.363000 13.931000 # CA UNL
451 31 1 0.000000 -0.000000 7.923000 2.147000 # CA UNL
452 32 1 0.000000 24.443001 24.131001 25.483000 # CA UNL
453 33 1 0.000000 2.071000 14.620000 27.768999 # CA UNL
454 34 1 0.000000 16.448999 8.283000 6.169000 # CA UNL
455 35 1 0.000000 18.579000 27.532000 1.621000 # CA UNL
456 36 1 0.000000 1.618000 17.513000 26.556999 # CA UNL
457 37 1 0.000000 22.820000 13.704000 1.725000 # CA UNL
458 38 1 0.000000 23.190001 20.297001 13.895000 # CA UNL
459 39 1 0.000000 19.309999 6.117000 22.811001 # CA UNL
460 40 1 0.000000 30.000000 22.431999 9.994000 # CA UNL
461 41 1 0.000000 7.778000 3.803000 25.240999 # CA UNL
462 42 1 0.000000 2.362000 30.000000 8.093000 # CA UNL
463 43 1 0.000000 2.545000 25.375000 27.941999 # CA UNL
464 44 1 0.000000 30.000000 24.891001 9.148000 # CA UNL
465 45 1 0.000000 9.627000 27.471001 27.110001 # CA UNL
466 46 1 0.000000 14.785000 22.917999 26.336000 # CA UNL
467 47 1 0.000000 5.890000 27.393999 7.313000 # CA UNL
468 48 1 0.000000 25.239000 7.786000 25.201000 # CA UNL
469 49 1 0.000000 2.113000 14.613000 4.866000 # CA UNL
470 50 1 0.000000 1.811000 21.545000 20.219000 # CA UNL
471 51 1 0.000000 25.023001 23.591999 4.008000 # CA UNL
472 52 1 0.000000 6.546000 3.264000 -0.001000 # CA UNL
473 53 1 0.000000 -0.001000 17.583000 20.483000 # CA UNL
474 54 1 0.000000 2.196000 2.723000 4.743000 # CA UNL
475 55 1 0.000000 15.635000 21.502001 9.132000 # CA UNL
476 56 1 0.000000 5.285000 6.203000 15.658000 # CA UNL
477 57 1 0.000000 11.651000 21.577999 -0.000000 # CA UNL
478 58 1 0.000000 21.679001 25.386000 8.661000 # CA UNL
479 59 1 0.000000 12.833000 27.354000 14.764000 # CA UNL
480 60 1 0.000000 21.042999 30.000000 9.856000 # CA UNL
481 61 1 0.000000 23.139000 12.169000 13.672000 # CA UNL
482 62 1 0.000000 22.965000 9.551000 26.420000 # CA UNL
483 63 1 0.000000 16.462000 13.153000 0.377000 # CA UNL
484 64 1 0.000000 4.315000 4.538000 2.748000 # CA UNL
485 65 1 0.000000 -0.001000 -0.001000 30.000999 # CA UNL
486 66 1 0.000000 9.054000 25.028000 16.971001 # CA UNL
487 67 1 0.000000 5.151000 3.906000 21.611000 # CA UNL
488 68 1 0.000000 16.070999 11.639000 20.730000 # CA UNL
489 69 1 0.000000 19.421000 24.111000 8.472000 # CA UNL
490 70 1 0.000000 25.686001 29.999001 19.139000 # CA UNL
491 71 1 0.000000 16.708000 10.373000 27.778000 # CA UNL
492 72 1 0.000000 8.488000 12.764000 25.402000 # CA UNL
493 73 1 0.000000 26.051001 5.627000 17.530001 # CA UNL
494 74 1 0.000000 13.127000 2.262000 -0.001000 # CA UNL
495 75 1 0.000000 22.966999 21.725000 26.222000 # CA UNL
496 76 1 0.000000 23.881001 16.853001 23.604000 # CA UNL
497 77 1 0.000000 5.544000 18.895000 19.594999 # CA UNL
498 78 1 0.000000 11.520000 9.535000 28.117001 # CA UNL
499 79 1 0.000000 13.605000 -0.001000 24.410000 # CA UNL
500 80 1 0.000000 12.320000 19.465000 1.359000 # CA UNL
501 81 1 0.000000 23.781000 29.552000 26.350000 # CA UNL
502 82 1 0.000000 4.460000 24.441999 14.045000 # CA UNL
503 83 1 0.000000 3.830000 14.302000 23.087999 # CA UNL
504 84 1 0.000000 18.024000 8.450000 26.624001 # CA UNL
505 85 1 0.000000 5.039000 12.045000 29.990000 # CA UNL
506 86 1 0.000000 -0.000000 28.018999 12.094000 # CA UNL
507 87 1 0.000000 25.253000 19.877001 19.073000 # CA UNL
508 88 1 0.000000 27.957001 13.670000 9.429000 # CA UNL
509 89 1 0.000000 6.335000 -0.000000 13.061000 # CA UNL
510 90 1 0.000000 4.647000 25.613001 8.983000 # CA UNL
511 91 1 0.000000 15.136000 26.238001 12.094000 # CA UNL
512 92 1 0.000000 25.320000 8.142000 30.000999 # CA UNL
513 93 1 0.000000 11.678000 22.122000 26.912001 # CA UNL