LAMMPS data file. CGCMM style. atom_style full generated by VMD/TopoTools v1.2 on Sat May 03 10:27:27 +0330 2025
 2030 atoms
 0 bonds
 0 angles
 0 dihedrals
 0 impropers
 4 atom types
 0 bond types
 0 angle types
 0 dihedral types
 0 improper types
 0.000000 30.000000  xlo xhi
 0.000000 30.000000  ylo yhi
 0.000000 30.000000  zlo zhi

# Pair Coeffs
#
# 1  CA
# 2  O
# 3  P
# 4  SI

 Masses

 1 40.077999 # CA
 2 15.999400 # O
 3 30.973761 # P
 4 28.085501 # SI

 Atoms

1 1 4 0.000000 27.708000 30.007000 1.257000 # SI UNL
2 2 4 0.000000 -0.002000 22.153999 0.087000 # SI UNL
3 3 4 0.000000 7.779000 6.077000 0.766000 # SI UNL
4 4 4 0.000000 5.013000 25.643999 -0.002000 # SI UNL
5 5 4 0.000000 28.613001 4.238000 5.115000 # SI UNL
6 6 4 0.000000 13.642000 16.532000 11.086000 # SI UNL
7 7 4 0.000000 21.531000 6.658000 7.168000 # SI UNL
8 8 4 0.000000 18.239000 20.096001 16.270000 # SI UNL
9 9 4 0.000000 19.965000 21.202999 10.167000 # SI UNL
10 10 4 0.000000 5.597000 17.716999 22.940001 # SI UNL
11 11 4 0.000000 10.810000 2.269000 10.648000 # SI UNL
12 12 4 0.000000 20.094000 7.179000 16.759001 # SI UNL
13 13 4 0.000000 1.140000 17.827999 13.989000 # SI UNL
14 14 4 0.000000 25.830999 17.740000 22.239000 # SI UNL
15 15 4 0.000000 27.433001 18.235001 29.996000 # SI UNL
16 16 4 0.000000 9.770000 22.999001 2.496000 # SI UNL
17 17 4 0.000000 4.941000 27.930000 21.292999 # SI UNL
18 18 4 0.000000 5.438000 15.158000 19.600000 # SI UNL
19 19 4 0.000000 20.924000 7.266000 26.256001 # SI UNL
20 20 4 0.000000 9.420000 18.687000 11.151000 # SI UNL
21 21 4 0.000000 13.526000 2.554000 4.145000 # SI UNL
22 22 4 0.000000 4.414000 11.191000 18.459000 # SI UNL
23 23 4 0.000000 25.655001 18.459999 8.457000 # SI UNL
24 24 4 0.000000 -0.002000 23.450001 27.742001 # SI UNL
25 25 4 0.000000 26.621000 0.897000 13.784000 # SI UNL
26 26 4 0.000000 7.719000 8.187000 2.961000 # SI UNL
27 27 4 0.000000 21.681000 7.397000 9.656000 # SI UNL
28 28 4 0.000000 0.000000 24.518999 25.372000 # SI UNL
29 29 4 0.000000 -0.006000 -0.005000 11.163000 # SI UNL
30 30 4 0.000000 1.233000 3.107000 27.854000 # SI UNL
31 31 4 0.000000 3.260000 0.776000 19.621000 # SI UNL
32 32 4 0.000000 16.565001 27.650000 26.929001 # SI UNL
33 33 4 0.000000 30.000000 8.808000 22.398001 # SI UNL
34 34 4 0.000000 25.615000 3.938000 17.143000 # SI UNL
35 35 4 0.000000 19.122000 -0.000000 15.636000 # SI UNL
36 36 4 0.000000 2.251000 22.070999 2.102000 # SI UNL
37 37 4 0.000000 13.328000 30.000000 0.005000 # SI UNL
38 38 4 0.000000 30.000000 27.584000 16.787001 # SI UNL
39 39 4 0.000000 26.834000 -0.000000 7.078000 # SI UNL
40 40 4 0.000000 3.958000 3.310000 20.608000 # SI UNL
41 41 4 0.000000 28.851000 16.297001 13.056000 # SI UNL
42 42 4 0.000000 10.636000 28.101000 28.327999 # SI UNL
43 43 4 0.000000 0.000000 19.569000 29.992001 # SI UNL
44 44 4 0.000000 -0.002000 26.031000 14.757000 # SI UNL
45 45 4 0.000000 26.122000 21.135000 18.784000 # SI UNL
46 46 4 0.000000 4.311000 16.013000 13.047000 # SI UNL
47 47 4 0.000000 30.000000 19.759001 8.218000 # SI UNL
48 48 4 0.000000 7.847000 2.941000 7.785000 # SI UNL
49 49 4 0.000000 18.367001 11.943000 15.230000 # SI UNL
50 50 4 0.000000 27.820000 16.205000 2.509000 # SI UNL
51 51 4 0.000000 10.470000 24.920000 4.183000 # SI UNL
52 52 4 0.000000 -0.002000 14.338000 3.939000 # SI UNL
53 53 4 0.000000 2.599000 14.692000 30.004999 # SI UNL
54 54 4 0.000000 0.001000 21.785000 16.658001 # SI UNL
55 55 4 0.000000 20.632999 20.084000 2.184000 # SI UNL
56 56 4 0.000000 23.653999 25.547001 20.226999 # SI UNL
57 57 4 0.000000 20.101999 -0.000000 4.156000 # SI UNL
58 58 4 0.000000 15.613000 27.098000 12.860000 # SI UNL
59 59 4 0.000000 24.274000 10.589000 8.019000 # SI UNL
60 60 4 0.000000 16.492001 12.606000 17.292999 # SI UNL
61 61 4 0.000000 7.652000 10.500000 -0.000000 # SI UNL
62 62 4 0.000000 0.014000 0.572000 27.719999 # SI UNL
63 63 4 0.000000 5.434000 2.204000 7.157000 # SI UNL
64 64 4 0.000000 27.851999 7.310000 19.783001 # SI UNL
65 65 4 0.000000 11.763000 22.184000 13.968000 # SI UNL
66 66 4 0.000000 2.445000 20.393999 12.366000 # SI UNL
67 67 4 0.000000 12.997000 7.135000 19.822001 # SI UNL
68 68 4 0.000000 12.096000 4.037000 20.496000 # SI UNL
69 69 4 0.000000 2.265000 14.958000 20.764999 # SI UNL
70 70 4 0.000000 14.683000 29.363001 23.872999 # SI UNL
71 71 4 0.000000 20.257999 11.737000 0.070000 # SI UNL
72 72 4 0.000000 3.692000 6.517000 30.014000 # SI UNL
73 73 4 0.000000 -0.000000 8.815000 19.343000 # SI UNL
74 74 4 0.000000 21.537001 23.648001 20.334000 # SI UNL
75 75 4 0.000000 6.661000 7.099000 16.791000 # SI UNL
76 76 4 0.000000 14.197000 21.548000 2.100000 # SI UNL
77 77 4 0.000000 0.001000 1.302000 18.447001 # SI UNL
78 78 4 0.000000 11.922000 14.317000 20.864000 # SI UNL
79 79 4 0.000000 25.760000 24.948000 5.715000 # SI UNL
80 80 4 0.000000 9.511000 12.501000 24.566000 # SI UNL
81 81 4 0.000000 0.047000 30.000999 17.420000 # SI UNL
82 82 4 0.000000 0.001000 29.983999 6.968000 # SI UNL
83 83 4 0.000000 24.063999 21.306000 24.638000 # SI UNL
84 84 4 0.000000 8.097000 17.044001 22.704000 # SI UNL
85 85 4 0.000000 14.753000 30.000999 5.198000 # SI UNL
86 86 4 0.000000 12.985000 19.184000 30.000000 # SI UNL
87 87 4 0.000000 15.349000 2.627000 2.292000 # SI UNL
88 88 4 0.000000 19.384001 16.139000 6.040000 # SI UNL
89 89 4 0.000000 22.649000 13.341000 13.578000 # SI UNL
90 90 4 0.000000 2.563000 24.360001 16.632000 # SI UNL
91 91 4 0.000000 30.000000 16.716000 22.579000 # SI UNL
92 92 4 0.000000 3.289000 2.949000 10.357000 # SI UNL
93 93 4 0.000000 4.605000 6.829000 2.593000 # SI UNL
94 94 4 0.000000 25.576000 28.115000 30.003000 # SI UNL
95 95 4 0.000000 9.197000 1.972000 12.666000 # SI UNL
96 96 4 0.000000 7.915000 14.374000 19.711000 # SI UNL
97 97 4 0.000000 20.207001 19.771000 30.000999 # SI UNL
98 98 4 0.000000 2.395000 17.341999 1.611000 # SI UNL
99 99 4 0.000000 -0.001000 30.003000 -0.002000 # SI UNL
100 100 4 0.000000 4.101000 23.091999 5.255000 # SI UNL
101 101 4 0.000000 24.129000 21.436001 20.636000 # SI UNL
102 102 4 0.000000 23.382999 16.327999 -0.001000 # SI UNL
103 103 4 0.000000 7.496000 25.011000 4.243000 # SI UNL
104 104 4 0.000000 22.183001 9.740000 0.000000 # SI UNL
105 105 4 0.000000 12.472000 14.047000 18.253000 # SI UNL
106 106 4 0.000000 30.000000 4.164000 23.725000 # SI UNL
107 107 4 0.000000 12.172000 30.002001 27.441000 # SI UNL
108 108 4 0.000000 19.465000 24.400999 18.955999 # SI UNL
109 109 4 0.000000 1.783000 12.340000 8.341000 # SI UNL
110 110 4 0.000000 23.487000 0.440000 25.200001 # SI UNL
111 111 4 0.000000 -0.001000 30.004999 9.657000 # SI UNL
112 112 4 0.000000 6.315000 7.821000 27.789000 # SI UNL
113 113 4 0.000000 21.297001 0.633000 27.806999 # SI UNL
114 114 4 0.000000 13.187000 2.274000 18.792999 # SI UNL
115 115 4 0.000000 0.078000 7.154000 4.942000 # SI UNL
116 116 4 0.000000 14.821000 18.375999 4.077000 # SI UNL
117 117 4 0.000000 17.799000 1.349000 -0.001000 # SI UNL
118 118 4 0.000000 13.807000 21.416000 18.718000 # SI UNL
119 119 4 0.000000 15.047000 16.670000 26.163000 # SI UNL
120 120 4 0.000000 5.887000 4.483000 19.134001 # SI UNL
121 121 4 0.000000 19.427000 27.093000 29.850000 # SI UNL
122 122 4 0.000000 7.613000 24.561001 8.612000 # SI UNL
123 123 4 0.000000 27.400999 11.233000 27.695000 # SI UNL
124 124 4 0.000000 24.534000 14.271000 7.452000 # SI UNL
125 125 4 0.000000 27.049999 23.672001 7.992000 # SI UNL
126 126 4 0.000000 28.159000 26.921000 21.877001 # SI UNL
127 127 4 0.000000 30.000000 10.088000 13.654000 # SI UNL
128 128 4 0.000000 10.325000 17.062000 9.336000 # SI UNL
129 129 4 0.000000 23.009001 12.004000 29.347000 # SI UNL
130 130 4 0.000000 18.750000 28.021000 4.679000 # SI UNL
131 131 4 0.000000 4.723000 11.351000 26.198000 # SI UNL
132 132 4 0.000000 21.864000 27.870001 1.982000 # SI UNL
133 133 4 0.000000 29.922001 17.927999 10.062000 # SI UNL
134 134 4 0.000000 20.615000 4.141000 2.735000 # SI UNL
135 135 4 0.000000 25.597000 1.360000 2.346000 # SI UNL
136 136 4 0.000000 6.606000 22.150000 19.186001 # SI UNL
137 137 4 0.000000 11.465000 28.760000 15.376000 # SI UNL
138 138 4 0.000000 2.355000 7.944000 3.966000 # SI UNL
139 139 4 0.000000 19.436001 3.505000 30.004000 # SI UNL
140 140 4 0.000000 17.771000 1.521000 29.778999 # SI UNL
141 141 4 0.000000 23.059999 30.000999 14.758000 # SI UNL
142 142 4 0.000000 0.020000 22.679001 11.949000 # SI UNL
143 143 4 0.000000 16.171000 19.959000 19.657000 # SI UNL
144 144 4 0.000000 0.119000 29.990000 29.999001 # SI UNL
145 145 4 0.000000 21.166000 19.087000 17.874001 # SI UNL
146 146 4 0.000000 25.427000 5.886000 0.741000 # SI UNL
147 147 4 0.000000 15.395000 7.337000 25.622999 # SI UNL
148 148 4 0.000000 -0.005000 4.884000 1.217000 # SI UNL
149 149 4 0.000000 14.884000 30.000000 30.000000 # SI UNL
150 150 4 0.000000 28.177999 15.548000 30.000000 # SI UNL
151 151 4 0.000000 23.576000 6.253000 20.289000 # SI UNL
152 152 4 0.000000 22.554001 14.872000 9.693000 # SI UNL
153 153 4 0.000000 2.167000 10.420000 6.630000 # SI UNL
154 154 4 0.000000 27.781000 30.000999 9.990000 # SI UNL
155 155 4 0.000000 20.552000 18.570000 0.070000 # SI UNL
156 156 4 0.000000 5.059000 10.445000 0.178000 # SI UNL
157 157 4 0.000000 22.656000 22.507000 26.464001 # SI UNL
158 158 4 0.000000 9.052000 7.172000 27.622000 # SI UNL
159 159 4 0.000000 0.010000 2.528000 2.587000 # SI UNL
160 160 4 0.000000 4.014000 15.368000 2.102000 # SI UNL
161 161 4 0.000000 16.496000 27.415001 16.577000 # SI UNL
162 162 4 0.000000 7.263000 10.913000 9.429000 # SI UNL
163 163 4 0.000000 15.508000 20.209000 11.138000 # SI UNL
164 164 4 0.000000 9.069000 20.469000 9.291000 # SI UNL
165 165 4 0.000000 1.908000 2.744000 17.424999 # SI UNL
166 166 4 0.000000 2.549000 27.416000 20.414000 # SI UNL
167 167 4 0.000000 -0.012000 26.038000 1.709000 # SI UNL
168 168 4 0.000000 28.254000 25.096001 19.825001 # SI UNL
169 169 4 0.000000 20.736000 0.047000 11.201000 # SI UNL
170 170 4 0.000000 19.320000 27.392000 2.222000 # SI UNL
171 171 4 0.000000 18.580999 11.724000 24.708000 # SI UNL
172 172 4 0.000000 16.228001 23.013000 23.000000 # SI UNL
173 173 4 0.000000 5.903000 4.678000 1.899000 # SI UNL
174 174 4 0.000000 27.396999 29.827000 23.462999 # SI UNL
175 175 4 0.000000 7.444000 30.000999 10.394000 # SI UNL
176 176 4 0.000000 4.532000 6.496000 18.200001 # SI UNL
177 177 4 0.000000 30.000000 18.993000 24.009001 # SI UNL
178 178 4 0.000000 12.344000 17.351999 14.689000 # SI UNL
179 179 4 0.000000 13.739000 15.840000 21.959999 # SI UNL
180 180 4 0.000000 27.556000 27.343000 15.039000 # SI UNL
181 181 4 0.000000 26.152000 21.936001 15.954000 # SI UNL
182 182 4 0.000000 20.680000 13.407000 25.489000 # SI UNL
183 183 4 0.000000 6.189000 1.939000 16.378000 # SI UNL
184 184 4 0.000000 25.726000 29.990000 5.569000 # SI UNL
185 185 4 0.000000 17.902000 19.728001 5.643000 # SI UNL
186 186 4 0.000000 27.854000 24.139999 22.867001 # SI UNL
187 187 4 0.000000 24.490000 2.337000 4.784000 # SI UNL
188 188 4 0.000000 22.261999 2.209000 11.408000 # SI UNL
189 189 4 0.000000 5.172000 12.828000 11.457000 # SI UNL
190 190 4 0.000000 8.400000 25.103001 20.641001 # SI UNL
191 191 4 0.000000 28.110001 28.046000 8.308000 # SI UNL
192 192 4 0.000000 11.367000 6.576000 7.099000 # SI UNL
193 193 4 0.000000 2.159000 5.656000 -0.001000 # SI UNL
194 194 4 0.000000 -0.003000 6.431000 18.305000 # SI UNL
195 195 4 0.000000 28.620001 25.830000 12.855000 # SI UNL
196 196 4 0.000000 27.705999 27.671000 28.580000 # SI UNL
197 197 4 0.000000 12.814000 20.282000 7.227000 # SI UNL
198 198 4 0.000000 13.729000 25.594000 23.688000 # SI UNL
199 199 4 0.000000 12.024000 9.011000 15.877000 # SI UNL
200 200 4 0.000000 7.707000 14.391000 17.120001 # SI UNL
201 201 4 0.000000 13.254000 23.281000 3.791000 # SI UNL
202 202 4 0.000000 14.433000 9.645000 16.622999 # SI UNL
203 203 4 0.000000 17.292999 15.699000 29.537001 # SI UNL
204 204 4 0.000000 30.000000 13.376000 3.397000 # SI UNL
205 205 4 0.000000 15.096000 11.637000 27.778999 # SI UNL
206 206 4 0.000000 12.793000 22.965000 23.392000 # SI UNL
207 207 4 0.000000 30.002001 25.127001 5.357000 # SI UNL
208 208 4 0.000000 27.737000 9.747000 29.865000 # SI UNL
209 209 4 0.000000 11.563000 17.489000 22.322001 # SI UNL
210 210 4 0.000000 24.822001 11.006000 2.990000 # SI UNL
211 211 4 0.000000 29.306999 7.164000 27.851999 # SI UNL
212 212 4 0.000000 26.256001 21.743000 2.046000 # SI UNL
213 213 4 0.000000 4.643000 25.554001 25.212999 # SI UNL
214 214 4 0.000000 29.743000 20.865000 14.361000 # SI UNL
215 215 4 0.000000 20.878000 30.000000 17.566999 # SI UNL
216 216 4 0.000000 16.188999 24.004000 -0.000000 # SI UNL
217 217 4 0.000000 30.000999 3.719000 11.810000 # SI UNL
218 218 4 0.000000 17.691000 21.408001 21.292000 # SI UNL
219 219 4 0.000000 13.893000 24.240999 25.926001 # SI UNL
220 220 4 0.000000 25.089001 4.557000 24.900000 # SI UNL
221 221 4 0.000000 30.000999 24.318001 17.579000 # SI UNL
222 222 4 0.000000 10.383000 2.245000 4.316000 # SI UNL
223 223 4 0.000000 16.323999 6.502000 0.103000 # SI UNL
224 224 4 0.000000 24.983999 22.719999 -0.000000 # SI UNL
225 225 4 0.000000 3.510000 0.062000 27.421000 # SI UNL
226 226 4 0.000000 29.701000 -0.000000 26.849001 # SI UNL
227 227 4 0.000000 29.917999 25.250000 2.602000 # SI UNL
228 228 4 0.000000 17.680000 30.000000 25.679001 # SI UNL
229 229 4 0.000000 3.724000 8.951000 24.511999 # SI UNL
230 230 4 0.000000 9.717000 10.346000 17.729000 # SI UNL
231 231 4 0.000000 17.247999 16.962999 13.788000 # SI UNL
232 232 4 0.000000 9.406000 28.299000 10.295000 # SI UNL
233 233 4 0.000000 25.766001 15.756000 24.134001 # SI UNL
234 234 4 0.000000 6.989000 22.544001 12.195000 # SI UNL
235 235 4 0.000000 30.006001 28.455000 27.656000 # SI UNL
236 236 4 0.000000 16.285999 6.787000 23.243000 # SI UNL
237 237 4 0.000000 9.045000 25.483999 12.490000 # SI UNL
238 238 4 0.000000 12.792000 25.551001 8.567000 # SI UNL
239 239 4 0.000000 13.268000 16.360001 16.915001 # SI UNL
240 240 4 0.000000 27.815001 13.463000 21.075001 # SI UNL
241 241 4 0.000000 30.000999 13.593000 8.937000 # SI UNL
242 242 4 0.000000 20.337999 13.654000 5.297000 # SI UNL
243 243 4 0.000000 19.518000 30.000000 21.933001 # SI UNL
244 244 4 0.000000 2.642000 9.544000 14.712000 # SI UNL
245 245 4 0.000000 9.124000 0.108000 23.436001 # SI UNL
246 246 4 0.000000 18.579000 22.143000 28.104000 # SI UNL
247 247 4 0.000000 6.857000 9.436000 25.825001 # SI UNL
248 248 4 0.000000 4.563000 24.653999 30.002001 # SI UNL
249 249 4 0.000000 28.020000 4.640000 19.483000 # SI UNL
250 250 4 0.000000 23.195000 0.000000 0.000000 # SI UNL
251 251 4 0.000000 0.632000 27.783001 5.567000 # SI UNL
252 252 4 0.000000 9.781000 16.652000 3.330000 # SI UNL
253 253 4 0.000000 24.402000 19.691000 12.421000 # SI UNL
254 254 4 0.000000 8.967000 13.080000 22.090000 # SI UNL
255 255 4 0.000000 13.397000 7.339000 2.394000 # SI UNL
256 256 4 0.000000 1.762000 4.740000 29.997000 # SI UNL
257 257 4 0.000000 13.351000 0.000000 4.601000 # SI UNL
258 258 4 0.000000 9.436000 28.667999 1.894000 # SI UNL
259 259 4 0.000000 13.455000 13.191000 22.966999 # SI UNL
260 260 4 0.000000 17.975000 7.710000 24.990999 # SI UNL
261 261 4 0.000000 0.013000 15.485000 13.960000 # SI UNL
262 262 4 0.000000 9.107000 20.068001 19.836000 # SI UNL
263 263 4 0.000000 5.356000 27.287001 11.959000 # SI UNL
264 264 4 0.000000 22.065001 0.788000 18.225000 # SI UNL
265 265 4 0.000000 9.633000 12.928000 2.698000 # SI UNL
266 266 4 0.000000 30.000999 20.254000 -0.000000 # SI UNL
267 267 4 0.000000 28.046000 2.449000 27.791000 # SI UNL
268 268 4 0.000000 21.892000 27.837999 22.697001 # SI UNL
269 269 4 0.000000 17.106001 16.601000 9.658000 # SI UNL
270 270 4 0.000000 2.278000 3.885000 24.534000 # SI UNL
271 271 4 0.000000 15.465000 20.698999 -0.005000 # SI UNL
272 272 4 0.000000 18.945999 18.888000 21.115999 # SI UNL
273 273 4 0.000000 1.101000 27.648001 -0.002000 # SI UNL
274 274 4 0.000000 5.581000 18.653000 6.249000 # SI UNL
275 275 4 0.000000 9.612000 3.599000 15.751000 # SI UNL
276 276 4 0.000000 5.737000 1.761000 30.000000 # SI UNL
277 277 4 0.000000 22.459000 9.040000 2.499000 # SI UNL
278 278 4 0.000000 7.239000 23.486000 2.153000 # SI UNL
279 279 4 0.000000 30.000000 10.867000 18.006001 # SI UNL
280 280 4 0.000000 5.552000 20.290001 23.306000 # SI UNL
281 281 4 0.000000 29.986000 15.025000 27.642000 # SI UNL
282 282 4 0.000000 3.769000 22.360001 19.152000 # SI UNL
283 283 4 0.000000 20.211000 22.343000 6.106000 # SI UNL
284 284 4 0.000000 3.830000 -0.006000 30.000000 # SI UNL
285 285 4 0.000000 10.584000 1.814000 8.098000 # SI UNL
286 286 4 0.000000 7.507000 15.574000 29.830000 # SI UNL
287 287 4 0.000000 4.818000 15.522000 27.483999 # SI UNL
288 288 4 0.000000 9.487000 6.359000 5.216000 # SI UNL
289 289 4 0.000000 29.999001 26.358000 26.120001 # SI UNL
290 290 4 0.000000 -0.001000 10.463000 8.577000 # SI UNL
291 291 4 0.000000 1.820000 18.038000 5.435000 # SI UNL
292 292 4 0.000000 0.092000 5.998000 21.046000 # SI UNL
293 293 4 0.000000 12.408000 25.868999 27.646999 # SI UNL
294 294 4 0.000000 26.782000 24.497000 11.590000 # SI UNL
295 295 4 0.000000 27.372000 6.511000 10.890000 # SI UNL
296 296 4 0.000000 3.217000 16.936001 15.689000 # SI UNL
297 297 4 0.000000 5.641000 9.823000 11.144000 # SI UNL
298 298 4 0.000000 2.323000 13.333000 6.000000 # SI UNL
299 299 4 0.000000 21.542000 21.349001 8.105000 # SI UNL
300 300 4 0.000000 26.679001 27.378000 23.964001 # SI UNL
301 301 4 0.000000 18.780001 26.895000 19.221001 # SI UNL
302 302 4 0.000000 5.402000 25.389000 2.749000 # SI UNL
303 303 4 0.000000 16.775999 5.225000 16.781000 # SI UNL
304 304 4 0.000000 18.715000 18.327999 2.144000 # SI UNL
305 305 4 0.000000 12.426000 7.171000 4.800000 # SI UNL
306 306 4 0.000000 23.816999 -0.004000 27.740000 # SI UNL
307 307 4 0.000000 11.292000 2.201000 23.858000 # SI UNL
308 308 4 0.000000 10.037000 20.077999 4.507000 # SI UNL
309 309 4 0.000000 22.198000 26.212000 15.168000 # SI UNL
310 310 4 0.000000 14.969000 5.338000 13.318000 # SI UNL
311 311 4 0.000000 8.047000 18.669001 14.775000 # SI UNL
312 312 4 0.000000 25.789000 23.756001 27.136999 # SI UNL
313 313 4 0.000000 0.068000 15.132000 27.438999 # SI UNL
314 314 4 0.000000 17.042000 9.515000 7.524000 # SI UNL
315 315 4 0.000000 18.431999 30.000999 0.052000 # SI UNL
316 316 4 0.000000 1.730000 19.434999 25.993000 # SI UNL
317 317 4 0.000000 20.252001 13.547000 1.936000 # SI UNL
318 318 4 0.000000 25.204000 22.544001 13.590000 # SI UNL
319 319 4 0.000000 18.549000 7.131000 21.351000 # SI UNL
320 320 4 0.000000 -0.001000 21.298000 9.730000 # SI UNL
321 321 4 0.000000 6.290000 6.453000 30.000000 # SI UNL
322 322 4 0.000000 2.369000 29.440001 7.894000 # SI UNL
323 323 4 0.000000 7.595000 26.698000 27.518000 # SI UNL
324 324 4 0.000000 30.014999 27.370001 6.672000 # SI UNL
325 325 4 0.000000 8.955000 27.745001 25.563999 # SI UNL
326 326 4 0.000000 14.352000 22.912001 28.118000 # SI UNL
327 327 4 0.000000 6.245000 26.542000 7.630000 # SI UNL
328 328 4 0.000000 25.025000 8.080000 25.924999 # SI UNL
329 329 4 0.000000 4.114000 15.891000 5.348000 # SI UNL
330 330 4 0.000000 15.654000 30.000000 19.226999 # SI UNL
331 331 4 0.000000 23.548000 25.940001 2.434000 # SI UNL
332 332 4 0.000000 11.197000 24.301001 17.528000 # SI UNL
333 333 4 0.000000 -0.000000 19.264999 21.268999 # SI UNL
334 334 4 0.000000 1.584000 2.180000 7.217000 # SI UNL
335 335 4 0.000000 17.634001 23.061001 9.697000 # SI UNL
336 336 4 0.000000 6.211000 8.128000 14.185000 # SI UNL
337 337 4 0.000000 10.679000 21.919001 0.288000 # SI UNL
338 338 4 0.000000 21.216000 27.611000 5.792000 # SI UNL
339 339 4 0.000000 12.520000 26.414000 16.789000 # SI UNL
340 340 4 0.000000 9.523000 19.297001 25.663000 # SI UNL
341 341 4 0.000000 23.316000 10.779000 14.035000 # SI UNL
342 342 4 0.000000 22.427999 8.760000 29.889000 # SI UNL
343 343 4 0.000000 14.561000 12.992000 2.148000 # SI UNL
344 344 4 0.000000 5.842000 4.622000 6.102000 # SI UNL
345 345 4 0.000000 1.231000 0.049000 29.974001 # SI UNL
346 346 4 0.000000 6.525000 26.152000 16.986000 # SI UNL
347 347 4 0.000000 5.770000 5.173000 22.497999 # SI UNL
348 348 4 0.000000 18.532000 13.008000 21.851999 # SI UNL
349 349 4 0.000000 18.896999 26.216999 6.546000 # SI UNL
350 350 4 0.000000 27.906000 30.002001 20.528000 # SI UNL
351 351 4 0.000000 17.261000 8.793000 28.764999 # SI UNL
352 352 4 0.000000 7.324000 15.012000 26.655001 # SI UNL
353 353 4 0.000000 28.054001 6.840000 17.233999 # SI UNL
354 354 4 0.000000 15.200000 1.410000 -0.000000 # SI UNL
355 355 4 0.000000 22.820999 19.575001 27.079000 # SI UNL
356 356 4 0.000000 22.195000 16.216999 19.820999 # SI UNL
357 357 4 0.000000 5.324000 13.478000 17.620001 # SI UNL
358 358 4 0.000000 11.164000 7.695000 26.198999 # SI UNL
359 359 4 0.000000 13.792000 1.851000 24.875999 # SI UNL
360 360 4 0.000000 12.871000 20.540001 0.059000 # SI UNL
361 361 4 0.000000 24.351000 29.284000 23.827000 # SI UNL
362 362 4 0.000000 4.767000 25.152000 15.352000 # SI UNL
363 363 4 0.000000 4.304000 11.990000 23.712999 # SI UNL
364 364 4 0.000000 18.447001 6.911000 27.420000 # SI UNL
365 365 4 0.000000 3.643000 12.559000 28.947001 # SI UNL
366 366 4 0.000000 0.006000 29.691999 14.838000 # SI UNL
367 367 4 0.000000 23.233000 17.320000 17.495001 # SI UNL
368 368 4 0.000000 28.160000 17.934999 7.998000 # SI UNL
369 369 4 0.000000 4.377000 -0.000000 13.958000 # SI UNL
370 370 4 0.000000 4.223000 25.042000 6.981000 # SI UNL
371 371 4 0.000000 14.083000 24.851999 13.310000 # SI UNL
372 372 4 0.000000 25.476000 8.470000 30.000999 # SI UNL
373 373 4 0.000000 11.895000 23.340000 27.327000 # SI UNL
374 374 4 0.000000 -0.002000 22.167999 30.004000 # SI UNL
375 375 4 0.000000 9.891000 2.996000 28.382000 # SI UNL
376 376 4 0.000000 30.002001 27.392000 4.072000 # SI UNL
377 377 4 0.000000 2.754000 29.964001 30.003000 # SI UNL
378 378 4 0.000000 30.000999 23.357000 30.000999 # SI UNL
379 379 4 0.000000 8.395000 19.917000 27.921000 # SI UNL
380 380 4 0.000000 2.972000 6.391000 24.542999 # SI UNL
381 381 4 0.000000 7.764000 17.521999 4.722000 # SI UNL
382 382 4 0.000000 17.222000 23.650999 20.035999 # SI UNL
383 383 4 0.000000 6.155000 4.228000 11.959000 # SI UNL
384 384 4 0.000000 14.012000 21.674000 9.068000 # SI UNL
385 385 4 0.000000 27.864000 14.930000 16.606001 # SI UNL
386 386 4 0.000000 20.667999 11.979000 20.784000 # SI UNL
387 387 4 0.000000 11.697000 20.250000 19.691000 # SI UNL
388 388 4 0.000000 25.205999 4.239000 20.070000 # SI UNL
389 389 4 0.000000 27.284000 8.516000 22.023001 # SI UNL
390 390 4 0.000000 17.910000 18.665001 25.587000 # SI UNL
391 391 4 0.000000 21.089001 25.566000 25.503000 # SI UNL
392 392 4 0.000000 9.444000 22.691999 26.723000 # SI UNL
393 393 4 0.000000 2.149000 3.443000 1.426000 # SI UNL
394 394 4 0.000000 13.922000 5.122000 4.234000 # SI UNL
395 395 4 0.000000 8.643000 16.145000 14.590000 # SI UNL
396 396 4 0.000000 18.899000 15.985000 20.249001 # SI UNL
397 397 4 0.000000 21.926001 9.317000 18.833000 # SI UNL
398 398 4 0.000000 4.227000 7.988000 9.965000 # SI UNL
399 399 4 0.000000 16.584000 23.590000 15.814000 # SI UNL
400 400 4 0.000000 17.850000 1.751000 4.631000 # SI UNL
401 401 4 0.000000 19.576000 22.826000 1.644000 # SI UNL
402 402 4 0.000000 0.199000 5.758000 10.567000 # SI UNL
403 403 4 0.000000 18.403000 16.014999 0.998000 # SI UNL
404 404 4 0.000000 5.136000 21.913000 21.316999 # SI UNL
405 405 4 0.000000 27.270000 3.649000 7.623000 # SI UNL
406 406 4 0.000000 25.521999 18.777000 3.371000 # SI UNL
407 407 4 0.000000 26.924999 14.681000 0.602000 # SI UNL
408 408 4 0.000000 10.055000 23.660000 22.546000 # SI UNL
409 409 4 0.000000 13.416000 6.949000 27.264000 # SI UNL
410 410 4 0.000000 22.813000 19.270000 7.198000 # SI UNL
411 411 4 0.000000 6.625000 15.114000 4.677000 # SI UNL
412 412 4 0.000000 11.059000 12.438000 29.962999 # SI UNL
413 413 4 0.000000 23.629999 26.100000 6.661000 # SI UNL
414 414 4 0.000000 17.145000 30.004999 4.179000 # SI UNL
415 415 4 0.000000 4.321000 13.204000 20.900999 # SI UNL
416 416 4 0.000000 6.791000 9.696000 18.594000 # SI UNL
417 417 4 0.000000 23.173000 4.933000 6.123000 # SI UNL
418 418 4 0.000000 16.659000 10.050000 18.590000 # SI UNL
419 419 4 0.000000 1.935000 23.945999 6.412000 # SI UNL
420 420 4 0.000000 16.979000 25.208000 11.188000 # SI UNL
421 1 1 0.000000 28.025999 15.316000 25.811001 # CA UNL
422 2 1 0.000000 0.078000 16.868999 16.160000 # CA UNL
423 3 1 0.000000 18.684999 19.552999 27.905001 # CA UNL
424 4 1 0.000000 21.778999 2.454000 29.599001 # CA UNL
425 5 1 0.000000 20.969999 -0.000000 24.721001 # CA UNL
426 6 1 0.000000 28.365000 8.831000 7.552000 # CA UNL
427 7 1 0.000000 29.996000 30.000000 29.999001 # CA UNL
428 8 1 0.000000 0.126000 16.587000 8.399000 # CA UNL
429 9 1 0.000000 21.525999 13.095000 16.052999 # CA UNL
430 10 1 0.000000 8.360000 10.964000 14.165000 # CA UNL
431 11 1 0.000000 23.797001 20.990999 1.663000 # CA UNL
432 12 1 0.000000 13.567000 11.753000 29.951000 # CA UNL
433 13 1 0.000000 -0.004000 3.879000 18.799000 # CA UNL
434 14 1 0.000000 26.045000 25.455999 21.500000 # CA UNL
435 15 1 0.000000 21.082001 25.237000 2.006000 # CA UNL
436 16 1 0.000000 18.120001 7.737000 1.715000 # CA UNL
437 17 1 0.000000 13.478000 1.526000 16.000999 # CA UNL
438 18 1 0.000000 28.226999 23.257000 5.689000 # CA UNL
439 19 1 0.000000 7.727000 -0.002000 25.627001 # CA UNL
440 20 1 0.000000 8.830000 5.910000 29.884001 # CA UNL
441 21 1 0.000000 5.970000 22.158001 25.066000 # CA UNL
442 22 1 0.000000 10.880000 5.209000 27.443001 # CA UNL
443 23 1 0.000000 16.745001 -0.000000 17.296000 # CA UNL
444 24 1 0.000000 23.243000 30.000000 1.126000 # CA UNL
445 25 1 0.000000 29.409000 20.705999 5.870000 # CA UNL
446 26 1 0.000000 10.959000 -0.001000 5.620000 # CA UNL
447 27 1 0.000000 17.770000 30.000000 9.348000 # CA UNL
448 28 1 0.000000 19.252001 6.689000 3.807000 # CA UNL
449 29 1 0.000000 2.807000 27.296000 11.448000 # CA UNL
450 30 1 0.000000 4.716000 19.804001 8.471000 # CA UNL
451 31 1 0.000000 29.423000 20.427000 10.664000 # CA UNL
452 32 1 0.000000 4.554000 29.424000 17.212000 # CA UNL
453 33 1 0.000000 17.478001 21.716000 11.916000 # CA UNL
454 34 1 0.000000 13.104000 25.875999 3.841000 # CA UNL
455 35 1 0.000000 26.162001 13.038000 14.616000 # CA UNL
456 36 1 0.000000 15.879000 20.698000 17.181000 # CA UNL
457 37 1 0.000000 19.188999 28.132999 10.469000 # CA UNL
458 38 1 0.000000 22.171000 9.158000 7.485000 # CA UNL
459 39 1 0.000000 16.756001 3.760000 7.210000 # CA UNL
460 40 1 0.000000 4.704000 8.187000 21.958000 # CA UNL
461 41 1 0.000000 16.646000 17.101000 18.778000 # CA UNL
462 42 1 0.000000 29.909000 21.556999 27.120001 # CA UNL
463 43 1 0.000000 14.700000 15.379000 19.287001 # CA UNL
464 44 1 0.000000 24.032000 12.410000 15.969000 # CA UNL
465 45 1 0.000000 6.856000 19.804001 21.110001 # CA UNL
466 46 1 0.000000 27.740999 25.796000 4.261000 # CA UNL
467 47 1 0.000000 11.525000 27.615999 25.933001 # CA UNL
468 48 1 0.000000 30.000999 6.466000 1.354000 # CA UNL
469 49 1 0.000000 13.056000 1.774000 21.341000 # CA UNL
470 50 1 0.000000 24.747999 26.554001 15.538000 # CA UNL
471 51 1 0.000000 30.000000 15.602000 15.283000 # CA UNL
472 52 1 0.000000 15.614000 7.322000 15.775000 # CA UNL
473 53 1 0.000000 7.312000 0.059000 9.279000 # CA UNL
474 54 1 0.000000 6.700000 15.753000 0.369000 # CA UNL
475 55 1 0.000000 20.608000 7.230000 28.836000 # CA UNL
476 56 1 0.000000 14.212000 13.237000 13.115000 # CA UNL
477 57 1 0.000000 17.992001 27.440001 -0.012000 # CA UNL
478 58 1 0.000000 19.125999 2.534000 13.364000 # CA UNL
479 59 1 0.000000 18.330999 20.660999 3.246000 # CA UNL
480 60 1 0.000000 25.489000 1.986000 27.697001 # CA UNL
481 61 1 0.000000 4.539000 30.000000 25.232000 # CA UNL
482 62 1 0.000000 21.204000 1.536000 15.889000 # CA UNL
483 63 1 0.000000 11.575000 5.599000 18.278999 # CA UNL
484 64 1 0.000000 10.319000 13.999000 12.739000 # CA UNL
485 65 1 0.000000 10.513000 29.992001 8.662000 # CA UNL
486 66 1 0.000000 16.903000 28.408001 2.141000 # CA UNL
487 67 1 0.000000 2.245000 19.669001 18.914000 # CA UNL
488 68 1 0.000000 6.814000 16.457001 6.895000 # CA UNL
489 69 1 0.000000 0.014000 17.552000 2.992000 # CA UNL
490 70 1 0.000000 17.938999 7.852000 18.048000 # CA UNL
491 71 1 0.000000 -0.000000 17.459000 -0.000000 # CA UNL
492 72 1 0.000000 12.848000 10.751000 14.130000 # CA UNL
493 73 1 0.000000 10.162000 5.377000 -0.001000 # CA UNL
494 74 1 0.000000 15.607000 -0.002000 25.048000 # CA UNL
495 75 1 0.000000 13.713000 28.287001 10.719000 # CA UNL
496 76 1 0.000000 25.393999 13.807000 21.959000 # CA UNL
497 77 1 0.000000 12.205000 20.636000 16.823999 # CA UNL
498 78 1 0.000000 24.270000 24.236000 10.970000 # CA UNL
499 79 1 0.000000 11.150000 18.124001 17.666000 # CA UNL
500 80 1 0.000000 12.198000 4.073000 25.419001 # CA UNL
501 81 1 0.000000 0.007000 27.393000 25.356001 # CA UNL
502 82 1 0.000000 2.182000 30.011999 27.466999 # CA UNL
503 83 1 0.000000 26.993999 24.323000 14.213000 # CA UNL
504 84 1 0.000000 6.062000 27.797001 18.945000 # CA UNL
505 85 1 0.000000 12.783000 25.951000 0.000000 # CA UNL
506 86 1 0.000000 24.711000 16.528999 2.250000 # CA UNL
507 87 1 0.000000 2.359000 9.686000 9.341000 # CA UNL
508 88 1 0.000000 16.962000 4.300000 29.924000 # CA UNL
509 89 1 0.000000 -0.001000 30.002001 4.368000 # CA UNL
510 90 1 0.000000 23.931999 14.720000 4.963000 # CA UNL
511 91 1 0.000000 13.811000 28.041000 27.917000 # CA UNL
512 92 1 0.000000 24.891001 13.964000 2.635000 # CA UNL
513 93 1 0.000000 4.587000 5.473000 27.808001 # CA UNL