LAMMPS data file. CGCMM style. atom_style full generated by VMD/TopoTools v1.2 on Sat May 03 10:28:16 +0330 2025
 2100 atoms
 0 bonds
 0 angles
 0 dihedrals
 0 impropers
 4 atom types
 0 bond types
 0 angle types
 0 dihedral types
 0 improper types
 0.000000 30.000000  xlo xhi
 0.000000 30.000000  ylo yhi
 0.000000 30.000000  zlo zhi

# Pair Coeffs
#
# 1  CA
# 2  O
# 3  P
# 4  SI

 Masses

 1 40.077999 # CA
 2 15.999400 # O
 3 30.973761 # P
 4 28.085501 # SI

 Atoms

1 1 4 0.000000 23.434999 30.000999 14.856000 # SI UNL
2 2 4 0.000000 -0.002000 22.240000 13.969000 # SI UNL
3 3 4 0.000000 12.286000 19.916000 21.423000 # SI UNL
4 4 4 0.000000 2.598000 30.002001 29.145000 # SI UNL
5 5 4 0.000000 22.238001 19.021999 17.853001 # SI UNL
6 6 4 0.000000 26.622000 5.196000 2.474000 # SI UNL
7 7 4 0.000000 15.643000 7.877000 25.665001 # SI UNL
8 8 4 0.000000 1.036000 29.981001 27.066000 # SI UNL
9 9 4 0.000000 15.275000 5.666000 27.389000 # SI UNL
10 10 4 0.000000 27.493999 15.375000 30.000999 # SI UNL
11 11 4 0.000000 23.469000 7.719000 23.013000 # SI UNL
12 12 4 0.000000 22.181999 17.787001 8.743000 # SI UNL
13 13 4 0.000000 2.430000 10.208000 7.231000 # SI UNL
14 14 4 0.000000 27.605000 30.004999 11.806000 # SI UNL
15 15 4 0.000000 20.344000 18.827000 0.024000 # SI UNL
16 16 4 0.000000 2.991000 10.008000 1.034000 # SI UNL
17 17 4 0.000000 20.921000 22.261999 29.804001 # SI UNL
18 18 4 0.000000 11.457000 8.741000 25.139999 # SI UNL
19 19 4 0.000000 -0.001000 3.923000 4.257000 # SI UNL
20 20 4 0.000000 4.454000 16.169001 1.242000 # SI UNL
21 21 4 0.000000 16.764999 27.143999 17.075001 # SI UNL
22 22 4 0.000000 7.879000 12.628000 9.646000 # SI UNL
23 23 4 0.000000 13.988000 21.150000 13.153000 # SI UNL
24 24 4 0.000000 8.842000 18.809999 10.406000 # SI UNL
25 25 4 0.000000 0.375000 3.014000 16.510000 # SI UNL
26 26 4 0.000000 18.674000 25.382000 16.966999 # SI UNL
27 27 4 0.000000 1.939000 22.868999 1.603000 # SI UNL
28 28 4 0.000000 28.089001 23.209999 19.039000 # SI UNL
29 29 4 0.000000 20.823000 0.641000 10.067000 # SI UNL
30 30 4 0.000000 19.709999 28.455000 2.149000 # SI UNL
31 31 4 0.000000 16.309000 13.898000 23.132000 # SI UNL
32 32 4 0.000000 16.799999 25.068001 21.207001 # SI UNL
33 33 4 0.000000 29.246000 30.002001 25.003000 # SI UNL
34 34 4 0.000000 3.191000 15.050000 26.385000 # SI UNL
35 35 4 0.000000 7.399000 28.018999 10.892000 # SI UNL
36 36 4 0.000000 3.536000 9.144000 19.117001 # SI UNL
37 37 4 0.000000 28.396999 18.298000 22.527000 # SI UNL
38 38 4 0.000000 11.152000 20.724001 12.705000 # SI UNL
39 39 4 0.000000 12.026000 16.670000 22.429001 # SI UNL
40 40 4 0.000000 27.915001 26.542999 14.508000 # SI UNL
41 41 4 0.000000 27.740000 21.718000 16.016001 # SI UNL
42 42 4 0.000000 20.122000 13.205000 26.225000 # SI UNL
43 43 4 0.000000 5.315000 1.896000 18.833000 # SI UNL
44 44 4 0.000000 21.823000 27.792000 6.421000 # SI UNL
45 45 4 0.000000 21.313999 18.670000 5.684000 # SI UNL
46 46 4 0.000000 26.066000 24.945999 23.559999 # SI UNL
47 47 4 0.000000 25.920000 4.249000 5.729000 # SI UNL
48 48 4 0.000000 23.336000 2.695000 11.829000 # SI UNL
49 49 4 0.000000 3.603000 13.223000 11.220000 # SI UNL
50 50 4 0.000000 8.496000 23.292000 21.341999 # SI UNL
51 51 4 0.000000 27.978001 27.950001 6.848000 # SI UNL
52 52 4 0.000000 9.111000 4.013000 9.137000 # SI UNL
53 53 4 0.000000 1.742000 4.533000 -0.010000 # SI UNL
54 54 4 0.000000 0.002000 5.524000 17.837999 # SI UNL
55 55 4 0.000000 29.888000 24.629999 10.446000 # SI UNL
56 56 4 0.000000 27.688000 27.632000 27.422001 # SI UNL
57 57 4 0.000000 14.824000 19.341000 6.641000 # SI UNL
58 58 4 0.000000 13.880000 27.716999 23.416000 # SI UNL
59 59 4 0.000000 12.417000 9.573000 19.382000 # SI UNL
60 60 4 0.000000 6.522000 16.010000 17.107000 # SI UNL
61 61 4 0.000000 12.573000 24.048000 3.662000 # SI UNL
62 62 4 0.000000 13.748000 7.935000 15.396000 # SI UNL
63 63 4 0.000000 17.319000 16.677000 28.870001 # SI UNL
64 64 4 0.000000 21.052999 26.055000 30.004000 # SI UNL
65 65 4 0.000000 12.845000 14.075000 29.771999 # SI UNL
66 66 4 0.000000 13.831000 20.882000 24.191999 # SI UNL
67 67 4 0.000000 30.000000 23.886000 6.078000 # SI UNL
68 68 4 0.000000 27.395000 10.231000 30.002001 # SI UNL
69 69 4 0.000000 10.576000 17.575001 24.386999 # SI UNL
70 70 4 0.000000 26.874001 10.404000 4.062000 # SI UNL
71 71 4 0.000000 27.916000 7.684000 30.003000 # SI UNL
72 72 4 0.000000 25.556999 20.443001 0.895000 # SI UNL
73 73 4 0.000000 4.340000 26.173000 25.889000 # SI UNL
74 74 4 0.000000 28.181999 19.198000 14.456000 # SI UNL
75 75 4 0.000000 21.197001 30.000000 17.610001 # SI UNL
76 76 4 0.000000 19.375000 25.686001 0.000000 # SI UNL
77 77 4 0.000000 30.000999 3.010000 12.806000 # SI UNL
78 78 4 0.000000 18.358999 20.334999 20.127001 # SI UNL
79 79 4 0.000000 13.711000 23.722000 24.275000 # SI UNL
80 80 4 0.000000 25.351000 2.693000 24.910000 # SI UNL
81 81 4 0.000000 30.006001 24.747000 18.190001 # SI UNL
82 82 4 0.000000 8.778000 2.296000 3.791000 # SI UNL
83 83 4 0.000000 15.581000 7.164000 2.717000 # SI UNL
84 84 4 0.000000 24.961000 24.073000 -0.001000 # SI UNL
85 85 4 0.000000 5.989000 2.147000 25.253000 # SI UNL
86 86 4 0.000000 29.277000 0.007000 26.363001 # SI UNL
87 87 4 0.000000 29.132000 24.028000 1.714000 # SI UNL
88 88 4 0.000000 15.904000 19.547001 20.527000 # SI UNL
89 89 4 0.000000 3.669000 10.086000 25.232000 # SI UNL
90 90 4 0.000000 9.708000 12.128000 18.167999 # SI UNL
91 91 4 0.000000 17.469999 16.879000 13.609000 # SI UNL
92 92 4 0.000000 10.195000 26.955999 10.232000 # SI UNL
93 93 4 0.000000 25.172001 16.615999 23.395000 # SI UNL
94 94 4 0.000000 7.987000 23.951000 11.338000 # SI UNL
95 95 4 0.000000 30.000999 26.693001 26.694000 # SI UNL
96 96 4 0.000000 17.794001 5.109000 21.653000 # SI UNL
97 97 4 0.000000 10.933000 24.545000 15.111000 # SI UNL
98 98 4 0.000000 13.024000 27.514000 8.382000 # SI UNL
99 99 4 0.000000 11.905000 16.181999 15.620000 # SI UNL
100 100 4 0.000000 27.655001 13.611000 20.850000 # SI UNL
101 101 4 0.000000 22.459000 22.681000 8.147000 # SI UNL
102 102 4 0.000000 20.962999 11.980000 5.546000 # SI UNL
103 103 4 0.000000 17.718000 29.011000 24.448000 # SI UNL
104 104 4 0.000000 2.212000 10.450000 15.099000 # SI UNL
105 105 4 0.000000 7.612000 0.029000 22.988001 # SI UNL
106 106 4 0.000000 17.003000 20.106001 27.181999 # SI UNL
107 107 4 0.000000 6.337000 7.291000 23.660000 # SI UNL
108 108 4 0.000000 2.201000 24.458000 29.936001 # SI UNL
109 109 4 0.000000 27.597000 2.426000 18.172001 # SI UNL
110 110 4 0.000000 23.617001 1.628000 1.979000 # SI UNL
111 111 4 0.000000 2.207000 27.950001 5.502000 # SI UNL
112 112 4 0.000000 9.504000 18.062000 4.744000 # SI UNL
113 113 4 0.000000 24.073999 18.826000 14.594000 # SI UNL
114 114 4 0.000000 9.539000 13.380000 20.438999 # SI UNL
115 115 4 0.000000 12.485000 9.959000 2.297000 # SI UNL
116 116 4 0.000000 1.314000 2.248000 30.011000 # SI UNL
117 117 4 0.000000 16.618000 0.638000 4.387000 # SI UNL
118 118 4 0.000000 12.345000 25.777000 -0.001000 # SI UNL
119 119 4 0.000000 13.813000 8.750000 24.039000 # SI UNL
120 120 4 0.000000 20.712999 7.851000 26.618999 # SI UNL
121 121 4 0.000000 0.008000 14.714000 13.305000 # SI UNL
122 122 4 0.000000 9.466000 30.000000 0.006000 # SI UNL
123 123 4 0.000000 5.266000 27.504999 12.291000 # SI UNL
124 124 4 0.000000 22.795000 2.053000 20.496000 # SI UNL
125 125 4 0.000000 10.193000 11.293000 3.958000 # SI UNL
126 126 4 0.000000 28.698000 16.923000 2.178000 # SI UNL
127 127 4 0.000000 27.500000 3.727000 27.962000 # SI UNL
128 128 4 0.000000 21.639000 27.514999 22.823999 # SI UNL
129 129 4 0.000000 17.159000 17.479000 10.867000 # SI UNL
130 130 4 0.000000 1.973000 2.589000 23.957001 # SI UNL
131 131 4 0.000000 14.832000 25.136000 4.350000 # SI UNL
132 132 4 0.000000 21.117001 21.024000 19.075001 # SI UNL
133 133 4 0.000000 1.830000 28.798000 1.535000 # SI UNL
134 134 4 0.000000 8.041000 17.698000 7.171000 # SI UNL
135 135 4 0.000000 7.244000 4.304000 15.546000 # SI UNL
136 136 4 0.000000 8.044000 3.651000 29.973000 # SI UNL
137 137 4 0.000000 23.068001 6.372000 2.876000 # SI UNL
138 138 4 0.000000 30.004000 22.379999 9.148000 # SI UNL
139 139 4 0.000000 30.000999 10.689000 17.500999 # SI UNL
140 140 4 0.000000 5.350000 17.045000 22.061001 # SI UNL
141 141 4 0.000000 29.072001 13.694000 27.738001 # SI UNL
142 142 4 0.000000 2.143000 21.841000 18.931000 # SI UNL
143 143 4 0.000000 9.433000 -0.001000 4.819000 # SI UNL
144 144 4 0.000000 -0.002000 -0.004000 27.398001 # SI UNL
145 145 4 0.000000 -0.001000 21.169001 20.617001 # SI UNL
146 146 4 0.000000 8.034000 14.641000 29.999001 # SI UNL
147 147 4 0.000000 5.127000 15.077000 28.120001 # SI UNL
148 148 4 0.000000 10.666000 7.051000 6.358000 # SI UNL
149 149 4 0.000000 30.002001 23.729000 26.205999 # SI UNL
150 150 4 0.000000 8.404000 -0.006000 15.930000 # SI UNL
151 151 4 0.000000 1.810000 18.459000 4.492000 # SI UNL
152 152 4 0.000000 0.709000 6.481000 22.423000 # SI UNL
153 153 4 0.000000 16.635000 28.177999 26.660000 # SI UNL
154 154 4 0.000000 26.229000 21.518999 9.250000 # SI UNL
155 155 4 0.000000 26.920000 7.661000 11.286000 # SI UNL
156 156 4 0.000000 4.125000 16.954000 15.009000 # SI UNL
157 157 4 0.000000 4.985000 10.093000 12.240000 # SI UNL
158 158 4 0.000000 2.427000 11.941000 2.678000 # SI UNL
159 159 4 0.000000 19.999001 23.507000 8.294000 # SI UNL
160 160 4 0.000000 27.134001 30.007000 26.520000 # SI UNL
161 161 4 0.000000 18.171000 26.507000 19.531000 # SI UNL
162 162 4 0.000000 5.938000 23.749001 2.084000 # SI UNL
163 163 4 0.000000 16.726000 4.004000 17.562000 # SI UNL
164 164 4 0.000000 16.282000 16.604000 1.326000 # SI UNL
165 165 4 0.000000 10.643000 6.160000 3.916000 # SI UNL
166 166 4 0.000000 22.257999 -0.006000 26.716000 # SI UNL
167 167 4 0.000000 11.000000 6.270000 21.478001 # SI UNL
168 168 4 0.000000 12.462000 19.153999 5.571000 # SI UNL
169 169 4 0.000000 23.711000 23.851000 10.543000 # SI UNL
170 170 4 0.000000 13.325000 5.400000 13.686000 # SI UNL
171 171 4 0.000000 0.496000 10.003000 2.601000 # SI UNL
172 172 4 0.000000 25.209999 26.507000 25.455000 # SI UNL
173 173 4 0.000000 1.097000 15.378000 27.889999 # SI UNL
174 174 4 0.000000 17.639999 10.107000 5.295000 # SI UNL
175 175 4 0.000000 15.813000 29.230000 -0.001000 # SI UNL
176 176 4 0.000000 2.040000 18.618000 23.959000 # SI UNL
177 177 4 0.000000 22.582001 12.033000 1.859000 # SI UNL
178 178 4 0.000000 23.677999 22.087999 15.108000 # SI UNL
179 179 4 0.000000 19.910999 6.619000 21.723000 # SI UNL
180 180 4 0.000000 30.004999 21.761999 11.674000 # SI UNL
181 181 4 0.000000 6.947000 5.420000 28.415001 # SI UNL
182 182 4 0.000000 2.614000 27.601000 8.046000 # SI UNL
183 183 4 0.000000 -0.002000 24.403999 25.259001 # SI UNL
184 184 4 0.000000 29.098000 25.329000 8.044000 # SI UNL
185 185 4 0.000000 8.455000 28.347000 27.433001 # SI UNL
186 186 4 0.000000 14.146000 22.657000 26.607000 # SI UNL
187 187 4 0.000000 6.643000 27.864000 8.409000 # SI UNL
188 188 4 0.000000 24.684000 9.973000 26.047001 # SI UNL
189 189 4 0.000000 2.308000 14.889000 4.696000 # SI UNL
190 190 4 0.000000 16.191999 29.917999 16.452999 # SI UNL
191 191 4 0.000000 23.438999 23.384001 5.844000 # SI UNL
192 192 4 0.000000 9.766000 9.667000 26.884001 # SI UNL
193 193 4 0.000000 -0.006000 18.028999 20.621000 # SI UNL
194 194 4 0.000000 1.848000 2.124000 4.575000 # SI UNL
195 195 4 0.000000 17.242001 21.975000 11.394000 # SI UNL
196 196 4 0.000000 6.192000 6.224000 14.102000 # SI UNL
197 197 4 0.000000 10.213000 22.629000 -0.001000 # SI UNL
198 198 4 0.000000 20.232000 27.981001 8.469000 # SI UNL
199 199 4 0.000000 12.248000 27.002001 15.181000 # SI UNL
200 200 4 0.000000 21.570999 30.000000 9.486000 # SI UNL
201 201 4 0.000000 23.271999 9.286000 13.189000 # SI UNL
202 202 4 0.000000 22.570000 9.459000 27.469999 # SI UNL
203 203 4 0.000000 16.305000 15.447000 3.654000 # SI UNL
204 204 4 0.000000 4.778000 5.759000 4.284000 # SI UNL
205 205 4 0.000000 0.003000 0.002000 29.997999 # SI UNL
206 206 4 0.000000 8.727000 28.076000 16.642000 # SI UNL
207 207 4 0.000000 5.124000 2.048000 21.422001 # SI UNL
208 208 4 0.000000 18.844000 11.916000 18.615000 # SI UNL
209 209 4 0.000000 18.908001 25.827000 7.863000 # SI UNL
210 210 4 0.000000 29.097000 30.000999 17.474001 # SI UNL
211 211 4 0.000000 15.823000 8.906000 30.003000 # SI UNL
212 212 4 0.000000 9.319000 12.032000 27.865000 # SI UNL
213 213 4 0.000000 27.393000 7.737000 16.855000 # SI UNL
214 214 4 0.000000 16.761999 4.602000 -0.000000 # SI UNL
215 215 4 0.000000 25.195000 19.013000 27.877001 # SI UNL
216 216 4 0.000000 22.910999 16.527000 22.040001 # SI UNL
217 217 4 0.000000 4.334000 18.525999 19.666000 # SI UNL
218 218 4 0.000000 13.799000 7.804000 27.497000 # SI UNL
219 219 4 0.000000 14.567000 -0.007000 24.573999 # SI UNL
220 220 4 0.000000 13.959000 20.757000 1.843000 # SI UNL
221 221 4 0.000000 18.240000 20.863001 16.242001 # SI UNL
222 222 4 0.000000 5.759000 24.483000 16.766001 # SI UNL
223 223 4 0.000000 5.559000 12.718000 23.709000 # SI UNL
224 224 4 0.000000 17.511999 9.395000 23.771999 # SI UNL
225 225 4 0.000000 4.985000 10.869000 30.002001 # SI UNL
226 226 4 0.000000 0.272000 27.837999 12.903000 # SI UNL
227 227 4 0.000000 25.410000 14.653000 18.601000 # SI UNL
228 228 4 0.000000 26.950001 15.438000 9.283000 # SI UNL
229 229 4 0.000000 6.715000 -0.001000 13.127000 # SI UNL
230 230 4 0.000000 5.497000 23.393000 8.761000 # SI UNL
231 231 4 0.000000 14.116000 24.736000 12.203000 # SI UNL
232 232 4 0.000000 25.798000 9.161000 28.250999 # SI UNL
233 233 4 0.000000 9.905000 23.537001 26.318001 # SI UNL
234 234 4 0.000000 13.792000 0.485000 0.900000 # SI UNL
235 235 4 0.000000 10.623000 3.332000 30.007999 # SI UNL
236 236 4 0.000000 30.000999 27.424000 5.302000 # SI UNL
237 237 4 0.000000 6.319000 2.491000 2.973000 # SI UNL
238 238 4 0.000000 30.000000 21.801001 30.003000 # SI UNL
239 239 4 0.000000 7.116000 19.681999 27.583000 # SI UNL
240 240 4 0.000000 4.246000 6.167000 27.761999 # SI UNL
241 241 4 0.000000 5.939000 30.007000 10.069000 # SI UNL
242 242 4 0.000000 15.372000 23.618999 19.587999 # SI UNL
243 243 4 0.000000 5.648000 5.671000 11.562000 # SI UNL
244 244 4 0.000000 11.157000 23.035000 7.784000 # SI UNL
245 245 4 0.000000 28.367001 12.199000 16.155001 # SI UNL
246 246 4 0.000000 21.417999 11.567000 18.870001 # SI UNL
247 247 4 0.000000 9.140000 20.773001 21.320000 # SI UNL
248 248 4 0.000000 24.796000 3.718000 21.650000 # SI UNL
249 249 4 0.000000 26.900000 9.982000 20.969000 # SI UNL
250 250 4 0.000000 18.452999 19.378000 25.150000 # SI UNL
251 251 4 0.000000 22.209999 26.285000 25.042999 # SI UNL
252 252 4 0.000000 -0.002000 4.094000 6.851000 # SI UNL
253 253 4 0.000000 3.618000 2.733000 -0.004000 # SI UNL
254 254 4 0.000000 12.047000 4.295000 5.089000 # SI UNL
255 255 4 0.000000 10.295000 17.933001 12.393000 # SI UNL
256 256 4 0.000000 16.680000 17.066999 20.612000 # SI UNL
257 257 4 0.000000 19.583000 7.456000 16.788000 # SI UNL
258 258 4 0.000000 8.594000 5.828000 7.345000 # SI UNL
259 259 4 0.000000 13.380000 23.209999 14.637000 # SI UNL
260 260 4 0.000000 18.207001 2.249000 5.894000 # SI UNL
261 261 4 0.000000 18.999001 21.969999 2.298000 # SI UNL
262 262 4 0.000000 -0.007000 3.223000 9.300000 # SI UNL
263 263 4 0.000000 19.818001 17.084000 2.019000 # SI UNL
264 264 4 0.000000 8.392000 19.915001 23.657000 # SI UNL
265 265 4 0.000000 27.247000 2.494000 7.833000 # SI UNL
266 266 4 0.000000 21.096001 19.059999 3.122000 # SI UNL
267 267 4 0.000000 27.766001 12.037000 2.245000 # SI UNL
268 268 4 0.000000 10.373000 25.837000 21.941999 # SI UNL
269 269 4 0.000000 15.636000 5.947000 29.948999 # SI UNL
270 270 4 0.000000 25.162001 21.742001 6.890000 # SI UNL
271 271 4 0.000000 7.445000 16.039000 27.444000 # SI UNL
272 272 4 0.000000 11.890000 12.357000 28.069000 # SI UNL
273 273 4 0.000000 24.521999 28.410000 5.834000 # SI UNL
274 274 4 0.000000 17.297001 30.003000 4.201000 # SI UNL
275 275 4 0.000000 5.307000 13.288000 21.184999 # SI UNL
276 276 4 0.000000 5.391000 10.550000 20.275999 # SI UNL
277 277 4 0.000000 5.709000 -0.018000 3.278000 # SI UNL
278 278 4 0.000000 14.942000 9.159000 19.843000 # SI UNL
279 279 4 0.000000 2.888000 23.697001 8.503000 # SI UNL
280 280 4 0.000000 18.132000 24.551001 9.991000 # SI UNL
281 281 4 0.000000 30.000000 15.884000 26.677000 # SI UNL
282 282 4 0.000000 -0.004000 15.210000 16.156000 # SI UNL
283 283 4 0.000000 16.528000 20.059999 29.996000 # SI UNL
284 284 4 0.000000 21.340000 2.082000 30.002001 # SI UNL
285 285 4 0.000000 5.215000 -0.008000 30.004999 # SI UNL
286 286 4 0.000000 29.153999 9.326000 9.840000 # SI UNL
287 287 4 0.000000 29.357000 29.962000 30.000999 # SI UNL
288 288 4 0.000000 -0.000000 20.580999 8.093000 # SI UNL
289 289 4 0.000000 22.240999 12.264000 16.504000 # SI UNL
290 290 4 0.000000 8.809000 15.287000 12.571000 # SI UNL
291 291 4 0.000000 17.243999 23.851000 2.671000 # SI UNL
292 292 4 0.000000 25.260000 7.317000 1.845000 # SI UNL
293 293 4 0.000000 15.393000 30.003000 19.395000 # SI UNL
294 294 4 0.000000 28.639000 27.679001 22.054001 # SI UNL
295 295 4 0.000000 21.083000 26.018000 1.948000 # SI UNL
296 296 4 0.000000 18.329000 7.081000 2.845000 # SI UNL
297 297 4 0.000000 14.765000 -0.004000 15.464000 # SI UNL
298 298 4 0.000000 27.392000 21.462999 5.583000 # SI UNL
299 299 4 0.000000 8.373000 -0.000000 26.888000 # SI UNL
300 300 4 0.000000 24.094999 16.827000 19.143999 # SI UNL
301 301 4 0.000000 5.034000 21.809000 27.292999 # SI UNL
302 302 4 0.000000 11.750000 4.047000 25.056999 # SI UNL
303 303 4 0.000000 16.098000 1.304000 20.056000 # SI UNL
304 304 4 0.000000 21.764000 30.000000 2.542000 # SI UNL
305 305 4 0.000000 30.004999 19.131001 2.594000 # SI UNL
306 306 4 0.000000 15.931000 19.669001 16.271999 # SI UNL
307 307 4 0.000000 18.698999 30.000999 9.042000 # SI UNL
308 308 4 0.000000 20.997999 7.630000 4.229000 # SI UNL
309 309 4 0.000000 -0.002000 25.347000 13.591000 # SI UNL
310 310 4 0.000000 4.977000 16.691000 10.506000 # SI UNL
311 311 4 0.000000 30.000000 19.186001 12.029000 # SI UNL
312 312 4 0.000000 5.838000 30.000000 14.820000 # SI UNL
313 313 4 0.000000 17.306999 19.458000 13.325000 # SI UNL
314 314 4 0.000000 13.519000 26.693001 5.966000 # SI UNL
315 315 4 0.000000 -0.000000 19.993000 15.696000 # SI UNL
316 316 4 0.000000 14.616000 22.506001 17.363001 # SI UNL
317 317 4 0.000000 18.495001 27.025999 13.000000 # SI UNL
318 318 4 0.000000 22.544001 10.622000 8.162000 # SI UNL
319 319 4 0.000000 18.069000 4.370000 8.125000 # SI UNL
320 320 4 0.000000 5.776000 10.280000 22.833000 # SI UNL
321 321 4 0.000000 19.827999 14.342000 18.070000 # SI UNL
322 322 4 0.000000 14.020000 17.979000 21.395000 # SI UNL
323 323 4 0.000000 15.951000 13.574000 17.500999 # SI UNL
324 324 4 0.000000 24.815001 12.919000 15.645000 # SI UNL
325 325 4 0.000000 6.369000 19.242001 21.117001 # SI UNL
326 326 4 0.000000 27.893999 27.513000 3.511000 # SI UNL
327 327 4 0.000000 13.467000 28.448999 25.875999 # SI UNL
328 328 4 0.000000 29.086000 5.965000 2.169000 # SI UNL
329 329 4 0.000000 11.148000 1.271000 19.851000 # SI UNL
330 330 4 0.000000 23.533001 26.507000 15.189000 # SI UNL
331 331 4 0.000000 -0.001000 20.298000 30.000999 # SI UNL
332 332 4 0.000000 14.438000 4.968000 18.337000 # SI UNL
333 333 4 0.000000 6.106000 -0.005000 8.004000 # SI UNL
334 334 4 0.000000 9.722000 16.388000 2.153000 # SI UNL
335 335 4 0.000000 20.605000 4.575000 30.000999 # SI UNL
336 336 4 0.000000 11.700000 14.031000 12.196000 # SI UNL
337 337 4 0.000000 20.978001 27.733000 -0.003000 # SI UNL
338 338 4 0.000000 19.146000 4.327000 13.515000 # SI UNL
339 339 4 0.000000 18.318001 23.316999 0.182000 # SI UNL
340 340 4 0.000000 27.635000 2.056000 25.976000 # SI UNL
341 341 4 0.000000 5.136000 29.995001 23.972000 # SI UNL
342 342 4 0.000000 21.516001 1.915000 16.312000 # SI UNL
343 343 4 0.000000 10.279000 3.451000 17.834000 # SI UNL
344 344 4 0.000000 13.427000 13.358000 0.010000 # SI UNL
345 345 4 0.000000 15.502000 10.460000 25.031000 # SI UNL
346 346 4 0.000000 17.684999 30.000999 1.630000 # SI UNL
347 347 4 0.000000 2.373000 18.618000 17.631001 # SI UNL
348 348 4 0.000000 23.421000 3.434000 -0.001000 # SI UNL
349 349 4 0.000000 -0.006000 19.056000 2.731000 # SI UNL
350 350 4 0.000000 19.573000 10.051000 16.957001 # SI UNL
351 351 4 0.000000 0.590000 18.839001 -0.002000 # SI UNL
352 352 4 0.000000 13.502000 11.622000 13.963000 # SI UNL
353 353 4 0.000000 10.219000 6.336000 1.357000 # SI UNL
354 354 4 0.000000 21.934999 21.479000 25.973000 # SI UNL
355 355 4 0.000000 16.118999 29.969000 9.357000 # SI UNL
356 356 4 0.000000 25.933001 12.239000 22.861000 # SI UNL
357 357 4 0.000000 10.953000 20.995001 19.469000 # SI UNL
358 358 4 0.000000 23.708000 21.260000 9.932000 # SI UNL
359 359 4 0.000000 11.731000 18.416000 16.938000 # SI UNL
360 360 4 0.000000 15.437000 5.038000 22.775000 # SI UNL
361 361 4 0.000000 1.182000 28.087999 23.386000 # SI UNL
362 362 4 0.000000 2.330000 27.961000 26.063000 # SI UNL
363 363 4 0.000000 26.813999 24.198999 14.276000 # SI UNL
364 364 4 0.000000 5.589000 28.334999 18.473000 # SI UNL
365 365 4 0.000000 13.284000 28.110001 1.790000 # SI UNL
366 366 4 0.000000 25.121000 17.080999 2.401000 # SI UNL
367 367 4 0.000000 3.306000 9.075000 10.535000 # SI UNL
368 368 4 0.000000 14.336000 9.278000 11.735000 # SI UNL
369 369 4 0.000000 0.096000 30.000999 8.115000 # SI UNL
370 370 4 0.000000 25.641001 12.477000 5.032000 # SI UNL
371 371 4 0.000000 12.397000 30.002001 27.666000 # SI UNL
372 372 4 0.000000 24.947001 14.521000 2.822000 # SI UNL
373 373 4 0.000000 3.456000 2.934000 28.708000 # SI UNL
374 374 4 0.000000 23.701000 17.891001 6.636000 # SI UNL
375 375 4 0.000000 10.321000 4.197000 11.431000 # SI UNL
376 376 4 0.000000 23.958000 4.666000 23.947001 # SI UNL
377 377 4 0.000000 5.278000 12.588000 4.239000 # SI UNL
378 378 4 0.000000 18.066999 6.865000 23.549999 # SI UNL
379 379 4 0.000000 29.077999 15.970000 6.461000 # SI UNL
380 380 4 0.000000 11.512000 30.011000 1.858000 # SI UNL
381 381 4 0.000000 23.629000 25.973000 5.988000 # SI UNL
382 382 4 0.000000 17.813000 18.233000 -0.001000 # SI UNL
383 383 4 0.000000 17.339001 6.283000 13.977000 # SI UNL
384 384 4 0.000000 24.086000 18.009001 30.003000 # SI UNL
385 385 4 0.000000 12.495000 30.003000 6.525000 # SI UNL
386 386 4 0.000000 12.615000 29.181999 4.062000 # SI UNL
387 387 4 0.000000 16.041000 15.744000 24.944000 # SI UNL
388 388 4 0.000000 26.290001 21.844000 23.903000 # SI UNL
389 389 4 0.000000 2.200000 29.865000 18.872000 # SI UNL
390 390 4 0.000000 2.636000 3.606000 15.372000 # SI UNL
391 391 4 0.000000 29.985001 22.448999 22.816000 # SI UNL
392 392 4 0.000000 13.838000 2.737000 13.940000 # SI UNL
393 393 4 0.000000 27.643999 9.352000 23.379000 # SI UNL
394 394 4 0.000000 29.889999 5.221000 15.980000 # SI UNL
395 395 4 0.000000 21.975000 13.515000 28.101999 # SI UNL
396 396 4 0.000000 17.445999 17.561001 16.118999 # SI UNL
397 397 4 0.000000 21.006001 3.328000 5.809000 # SI UNL
398 398 4 0.000000 9.759000 9.767000 14.354000 # SI UNL
399 399 4 0.000000 11.852000 14.056000 19.461000 # SI UNL
400 400 4 0.000000 12.709000 15.103000 1.822000 # SI UNL
401 401 4 0.000000 26.201000 20.171000 20.500999 # SI UNL
402 402 4 0.000000 13.170000 23.457001 9.375000 # SI UNL
403 403 4 0.000000 7.649000 14.822000 7.850000 # SI UNL
404 404 4 0.000000 27.868000 6.885000 24.306999 # SI UNL
405 405 4 0.000000 19.082001 16.761999 25.063000 # SI UNL
406 406 4 0.000000 13.499000 7.005000 19.650000 # SI UNL
407 407 4 0.000000 4.970000 19.540001 0.719000 # SI UNL
408 408 4 0.000000 24.504000 4.825000 29.573999 # SI UNL
409 409 4 0.000000 9.484000 21.438000 10.781000 # SI UNL
410 410 4 0.000000 5.637000 24.039000 12.446000 # SI UNL
411 411 4 0.000000 16.542999 10.385000 10.922000 # SI UNL
412 412 4 0.000000 6.393000 14.504000 2.513000 # SI UNL
413 413 4 0.000000 10.847000 6.026000 13.203000 # SI UNL
414 414 4 0.000000 4.524000 23.737000 6.375000 # SI UNL
415 415 4 0.000000 4.598000 16.787001 30.004999 # SI UNL
416 416 4 0.000000 2.214000 17.634001 29.403999 # SI UNL
417 417 4 0.000000 30.003000 30.003000 5.633000 # SI UNL
418 418 4 0.000000 26.282000 8.838000 -0.000000 # SI UNL
419 419 4 0.000000 22.950001 7.371000 8.854000 # SI UNL
420 420 4 0.000000 4.079000 14.762000 23.086000 # SI UNL
421 1 1 0.000000 30.009001 14.715000 30.004000 # CA UNL
422 2 1 0.000000 23.412001 2.462000 18.003000 # CA UNL
423 3 1 0.000000 -0.000000 27.702000 28.003000 # CA UNL
424 4 1 0.000000 12.618000 30.004000 23.974001 # CA UNL
425 5 1 0.000000 21.860001 5.702000 25.080000 # CA UNL
426 6 1 0.000000 5.350000 3.803000 27.153000 # CA UNL
427 7 1 0.000000 27.395000 14.491000 16.903000 # CA UNL
428 8 1 0.000000 19.058001 27.490999 15.495000 # CA UNL
429 9 1 0.000000 17.695999 30.000999 29.989000 # CA UNL
430 10 1 0.000000 20.884001 27.948000 13.447000 # CA UNL
431 11 1 0.000000 17.889000 -0.000000 -0.000000 # CA UNL
432 12 1 0.000000 30.000000 18.976999 -0.001000 # CA UNL
433 13 1 0.000000 19.884001 10.483000 10.227000 # CA UNL
434 14 1 0.000000 6.605000 20.929001 2.187000 # CA UNL
435 15 1 0.000000 4.473000 30.002001 20.127001 # CA UNL
436 16 1 0.000000 15.450000 9.352000 4.116000 # CA UNL
437 17 1 0.000000 23.427000 28.207001 12.974000 # CA UNL
438 18 1 0.000000 5.669000 7.954000 10.318000 # CA UNL
439 19 1 0.000000 3.953000 -0.001000 20.183001 # CA UNL
440 20 1 0.000000 21.841000 28.886999 20.625000 # CA UNL
441 21 1 0.000000 6.752000 28.780001 2.226000 # CA UNL
442 22 1 0.000000 25.393999 15.136000 25.559000 # CA UNL
443 23 1 0.000000 20.246000 15.475000 9.344000 # CA UNL
444 24 1 0.000000 19.693001 29.966999 22.785000 # CA UNL
445 25 1 0.000000 9.584000 7.104000 17.830999 # CA UNL
446 26 1 0.000000 0.693000 12.865000 4.454000 # CA UNL
447 27 1 0.000000 10.923000 21.239000 5.774000 # CA UNL
448 28 1 0.000000 -0.004000 23.500000 -0.005000 # CA UNL
449 29 1 0.000000 9.761000 27.455000 30.000999 # CA UNL
450 30 1 0.000000 18.837000 27.117001 27.546000 # CA UNL
451 31 1 0.000000 14.808000 16.311001 7.361000 # CA UNL
452 32 1 0.000000 0.003000 20.749001 10.688000 # CA UNL
453 33 1 0.000000 18.184999 14.475000 2.143000 # CA UNL
454 34 1 0.000000 17.709000 15.814000 8.079000 # CA UNL
455 35 1 0.000000 20.017000 12.887000 9.245000 # CA UNL
456 36 1 0.000000 13.435000 29.952999 17.687000 # CA UNL
457 37 1 0.000000 9.338000 18.944000 19.472000 # CA UNL
458 38 1 0.000000 17.066999 6.178000 10.608000 # CA UNL
459 39 1 0.000000 9.888000 10.532000 6.425000 # CA UNL
460 40 1 0.000000 21.169001 20.927999 1.315000 # CA UNL
461 41 1 0.000000 25.874001 25.813999 16.083000 # CA UNL
462 42 1 0.000000 13.054000 14.119000 14.531000 # CA UNL
463 43 1 0.000000 5.690000 2.548000 29.982000 # CA UNL
464 44 1 0.000000 24.601000 28.437000 16.575001 # CA UNL
465 45 1 0.000000 4.309000 23.546000 25.499001 # CA UNL
466 46 1 0.000000 2.643000 11.151000 12.632000 # CA UNL
467 47 1 0.000000 4.346000 19.547001 26.209999 # CA UNL
468 48 1 0.000000 12.114000 29.983000 21.004999 # CA UNL
469 49 1 0.000000 8.035000 27.743000 19.125999 # CA UNL
470 50 1 0.000000 17.344999 20.393000 7.013000 # CA UNL
471 51 1 0.000000 16.320999 0.442000 13.184000 # CA UNL
472 52 1 0.000000 10.247000 8.302000 20.042000 # CA UNL
473 53 1 0.000000 3.806000 20.729000 17.135000 # CA UNL
474 54 1 0.000000 21.756001 3.414000 2.330000 # CA UNL
475 55 1 0.000000 30.000000 13.538000 6.421000 # CA UNL
476 56 1 0.000000 7.949000 9.372000 18.898001 # CA UNL
477 57 1 0.000000 20.049000 23.924000 3.655000 # CA UNL
478 58 1 0.000000 -0.002000 0.310000 16.101999 # CA UNL
479 59 1 0.000000 15.431000 27.125999 9.853000 # CA UNL
480 60 1 0.000000 -0.001000 5.257000 15.252000 # CA UNL
481 61 1 0.000000 24.421000 22.507000 2.003000 # CA UNL
482 62 1 0.000000 -0.003000 1.538000 25.281000 # CA UNL
483 63 1 0.000000 27.420000 24.964001 -0.005000 # CA UNL
484 64 1 0.000000 30.000000 19.524000 16.285999 # CA UNL
485 65 1 0.000000 11.186000 27.708000 27.841000 # CA UNL
486 66 1 0.000000 12.939000 27.222000 20.745001 # CA UNL
487 67 1 0.000000 3.680000 8.859000 16.537001 # CA UNL
488 68 1 0.000000 29.061001 3.312000 30.000000 # CA UNL
489 69 1 0.000000 24.993999 18.069000 -0.001000 # CA UNL
490 70 1 0.000000 7.084000 8.063000 12.496000 # CA UNL
491 71 1 0.000000 4.401000 3.738000 9.828000 # CA UNL
492 72 1 0.000000 26.725000 20.771999 26.726999 # CA UNL
493 73 1 0.000000 11.213000 12.383000 16.063000 # CA UNL
494 74 1 0.000000 1.983000 4.173000 10.678000 # CA UNL
495 75 1 0.000000 22.101999 15.861000 17.783001 # CA UNL
496 76 1 0.000000 26.875999 30.003000 23.933001 # CA UNL
497 77 1 0.000000 5.697000 28.539000 21.893000 # CA UNL
498 78 1 0.000000 1.868000 -0.004000 2.108000 # CA UNL
499 79 1 0.000000 6.784000 4.073000 7.979000 # CA UNL
500 80 1 0.000000 5.898000 12.765000 15.784000 # CA UNL
501 81 1 0.000000 18.829000 1.015000 19.611000 # CA UNL
502 82 1 0.000000 22.188999 6.721000 16.945999 # CA UNL
503 83 1 0.000000 25.756001 16.344000 11.471000 # CA UNL
504 84 1 0.000000 29.952000 10.438000 3.072000 # CA UNL
505 85 1 0.000000 23.301001 7.802000 25.606001 # CA UNL
506 86 1 0.000000 26.999001 18.879000 2.389000 # CA UNL
507 87 1 0.000000 22.441999 28.160999 29.375000 # CA UNL
508 88 1 0.000000 25.981001 27.996000 11.512000 # CA UNL
509 89 1 0.000000 6.301000 3.750000 13.187000 # CA UNL
510 90 1 0.000000 24.709000 16.745001 9.125000 # CA UNL
511 91 1 0.000000 29.704000 2.100000 7.080000 # CA UNL
512 92 1 0.000000 27.907000 1.863000 13.834000 # CA UNL
513 93 1 0.000000 9.720000 26.790001 14.613000 # CA UNL